 Entering Gaussian System, Link 0=g16
 Input=C4H6_electrocyclization_IRC_reverse.gjf
 Output=C4H6_electrocyclization_IRC_reverse.out
 Initial command:
 /home/gaussian/g16/l1.exe "/home/zz/C4H6_electrocyclization_findTS/Gau-12355.inp" -scrdir="/home/zz/C4H6_electrocyclization_findTS/"
 Entering Link 1 = /home/gaussian/g16/l1.exe PID=     12357.
  
 Copyright (c) 1988-2021, Gaussian, Inc.  All Rights Reserved.
  
 This is part of the Gaussian(R) 16 program.  It is based on
 the Gaussian(R) 09 system (copyright 2009, Gaussian, Inc.),
 the Gaussian(R) 03 system (copyright 2003, Gaussian, Inc.),
 the Gaussian(R) 98 system (copyright 1998, Gaussian, Inc.),
 the Gaussian(R) 94 system (copyright 1995, Gaussian, Inc.),
 the Gaussian 92(TM) system (copyright 1992, Gaussian, Inc.),
 the Gaussian 90(TM) system (copyright 1990, Gaussian, Inc.),
 the Gaussian 88(TM) system (copyright 1988, Gaussian, Inc.),
 the Gaussian 86(TM) system (copyright 1986, Carnegie Mellon
 University), and the Gaussian 82(TM) system (copyright 1983,
 Carnegie Mellon University). Gaussian is a federally registered
 trademark of Gaussian, Inc.
  
 This software contains proprietary and confidential information,
 including trade secrets, belonging to Gaussian, Inc.
  
 This software is provided under written license and may be
 used, copied, transmitted, or stored only in accord with that
 written license.
  
 The following legend is applicable only to US Government
 contracts under FAR:
  
                    RESTRICTED RIGHTS LEGEND
  
 Use, reproduction and disclosure by the US Government is
 subject to restrictions as set forth in subparagraphs (a)
 and (c) of the Commercial Computer Software - Restricted
 Rights clause in FAR 52.227-19.
  
 Gaussian, Inc.
 340 Quinnipiac St., Bldg. 40, Wallingford CT 06492
  
  
 ---------------------------------------------------------------
 Warning -- This program may not be used in any manner that
 competes with the business of Gaussian, Inc. or will provide
 assistance to any competitor of Gaussian, Inc.  The licensee
 of this program is prohibited from giving any competitor of
 Gaussian, Inc. access to this program.  By using this program,
 the user acknowledges that Gaussian, Inc. is engaged in the
 business of creating and licensing software in the field of
 computational chemistry and represents and warrants to the
 licensee that it is not a competitor of Gaussian, Inc. and that
 it will not use this program in any manner prohibited above.
 ---------------------------------------------------------------
  

 Cite this work as:
 Gaussian 16, Revision C.02,
 M. J. Frisch, G. W. Trucks, H. B. Schlegel, G. E. Scuseria, 
 M. A. Robb, J. R. Cheeseman, G. Scalmani, V. Barone, 
 G. A. Petersson, H. Nakatsuji, X. Li, M. Caricato, A. V. Marenich, 
 J. Bloino, B. G. Janesko, R. Gomperts, B. Mennucci, H. P. Hratchian, 
 J. V. Ortiz, A. F. Izmaylov, J. L. Sonnenberg, D. Williams-Young, 
 F. Ding, F. Lipparini, F. Egidi, J. Goings, B. Peng, A. Petrone, 
 T. Henderson, D. Ranasinghe, V. G. Zakrzewski, J. Gao, N. Rega, 
 G. Zheng, W. Liang, M. Hada, M. Ehara, K. Toyota, R. Fukuda, 
 J. Hasegawa, M. Ishida, T. Nakajima, Y. Honda, O. Kitao, H. Nakai, 
 T. Vreven, K. Throssell, J. A. Montgomery, Jr., J. E. Peralta, 
 F. Ogliaro, M. J. Bearpark, J. J. Heyd, E. N. Brothers, K. N. Kudin, 
 V. N. Staroverov, T. A. Keith, R. Kobayashi, J. Normand, 
 K. Raghavachari, A. P. Rendell, J. C. Burant, S. S. Iyengar, 
 J. Tomasi, M. Cossi, J. M. Millam, M. Klene, C. Adamo, R. Cammi, 
 J. W. Ochterski, R. L. Martin, K. Morokuma, O. Farkas, 
 J. B. Foresman, and D. J. Fox, Gaussian, Inc., Wallingford CT, 2019.
 
 ******************************************
 Gaussian 16:  ES64L-G16RevC.02  7-Dec-2021
                 6-Apr-2023 
 ******************************************
 %CPU=0-7
 SetSPE:  set environment variable "OMP_PROC_BIND" = "true"
 SetSPE:  set environment variable "OMP_PLACES" = "{0},{1},{2},{3},{4},{5},{6},{7}"
 Will use up to    8 processors via shared memory.
 %Mem=8GB
 %chk=C4H6_electrocyclization_IRC_reverse.chk
 ----------------------------------------------------------------------
 #P IRC=(HPC,CalcFC,ReCalc=4,StepSize=5,MaxPoints=200,Reverse) B3LYP/6-
 311G* EmpiricalDispersion=GD3BJ
 ----------------------------------------------------------------------
 1/10=4,18=10,22=2,26=3,38=1,39=5,42=200,44=3,45=3,71=4,172=1/1,23;
 2/12=2,17=6,18=5,29=1,40=1/2;
 3/5=4,6=6,7=1,11=2,25=1,30=1,71=2,74=-5,124=41,140=1/1,2,3;
 4//1;
 5/5=2,38=5/2;
 8/6=4,10=90,11=11/1;
 11/6=1,8=1,9=11,15=111,16=1/1,2,10;
 10/6=1,13=1/2;
 6/7=2,8=2,9=2,10=2,28=1/1;
 7/10=1,25=1/1,2,3,16;
 1/10=4,18=10,22=2,26=3,39=5,42=200,44=3,45=3,71=4/23(2);
 2/29=1/2;
 99/5=20/99;
 2/29=1/2;
 3/5=4,6=6,7=1,11=2,25=1,30=1,71=2,74=-5,124=41,140=1/1,2,3;
 4/5=5,16=3,69=1/1;
 5/5=2,38=5/2;
 8/6=4,10=90,11=11/1;
 11/6=1,8=1,9=11,15=111,16=1/1,2,10;
 10/6=1,13=1/2;
 7/10=1,25=1/1,2,3,16;
 1/18=10,22=2,26=3,39=5,42=200,44=3,45=3,71=4/23(-8);
 2/29=1/2;
 6/7=2,8=2,9=2,10=2,19=2,28=1/1;
 99/5=20,9=1/99;
 Leave Link    1 at Thu Apr  6 11:02:16 2023, MaxMem=  1073741824 cpu:               0.0 elap:               0.0
 (Enter /home/gaussian/g16/l101.exe)
 -------------------
 Title Card Required
 -------------------
 Symbolic Z-matrix:
 Charge =  0 Multiplicity = 1
 C                    -1.06375  -0.62744   0.11627 
 H                    -0.88186  -1.08142   1.08073 
 H                    -1.87244  -1.10208  -0.44572 
 C                    -0.6813    0.73406  -0.08211 
 H                    -1.33704   1.54376  -0.39259 
 C                     0.68129   0.73406   0.0821 
 H                     1.33702   1.54377   0.39261 
 C                     1.06376  -0.62743  -0.11627 
 H                     0.88188  -1.08142  -1.08073 
 H                     1.87245  -1.10205   0.44574 
 
 ITRead=  0  0  0  0  0  0  0  0  0  0
 MicOpt= -1 -1 -1 -1 -1 -1 -1 -1 -1 -1
 NAtoms=     10 NQM=       10 NQMF=       0 NMMI=      0 NMMIF=      0
                NMic=       0 NMicF=      0.
                    Isotopes and Nuclear Properties:
 (Nuclear quadrupole moments (NQMom) in fm**2, nuclear magnetic moments (NMagM)
  in nuclear magnetons)

  Atom         1           2           3           4           5           6           7           8           9          10
 IAtWgt=          12           1           1          12           1          12           1          12           1           1
 AtmWgt=  12.0000000   1.0078250   1.0078250  12.0000000   1.0078250  12.0000000   1.0078250  12.0000000   1.0078250   1.0078250
 NucSpn=           0           1           1           0           1           0           1           0           1           1
 AtZEff=  -0.0000000  -0.0000000  -0.0000000  -0.0000000  -0.0000000  -0.0000000  -0.0000000  -0.0000000  -0.0000000  -0.0000000
 NQMom=    0.0000000   0.0000000   0.0000000   0.0000000   0.0000000   0.0000000   0.0000000   0.0000000   0.0000000   0.0000000
 NMagM=    0.0000000   2.7928460   2.7928460   0.0000000   2.7928460   0.0000000   2.7928460   0.0000000   2.7928460   2.7928460
 AtZNuc=   6.0000000   1.0000000   1.0000000   6.0000000   1.0000000   6.0000000   1.0000000   6.0000000   1.0000000   1.0000000
 Leave Link  101 at Thu Apr  6 11:02:16 2023, MaxMem=  1073741824 cpu:               0.1 elap:               0.1
 (Enter /home/gaussian/g16/l123.exe)
 IRC-IRC-IRC-IRC-IRC-IRC-IRC-IRC-IRC-IRC-IRC-IRC-IRC-IRC-IRC-IRC-IRC-IRC
 ------------------------------------------------------------------------
 INPUT DATA FOR L123
 ------------------------------------------------------------------------
 GENERAL PARAMETERS:
 Rxn path following direction = Reverse
 Maximum points per path      = 200
 Step size                    =   0.050 bohr
 Integration scheme           = HPC                                 
    Redo corrector integration= Yes                                 
    DWI Weight Power          =  2
    DWI will use Hessian update vectors when possible.
    Max correction cycles     =  20
 Initial Hessian              = CalcFC
 Hessian evaluation           = Analytic every   4 predictor steps
                              = Update at all corrector steps
 Hessian updating method      = Bofill                              
 ------------------------------------------------------------------------
 IRC-IRC-IRC-IRC-IRC-IRC-IRC-IRC-IRC-IRC-IRC-IRC-IRC-IRC-IRC-IRC-IRC-IRC
 Leave Link  123 at Thu Apr  6 11:02:16 2023, MaxMem=  1073741824 cpu:               0.0 elap:               0.0
 (Enter /home/gaussian/g16/l202.exe)
                          Input orientation:                          
 ---------------------------------------------------------------------
 Center     Atomic      Atomic             Coordinates (Angstroms)
 Number     Number       Type             X           Y           Z
 ---------------------------------------------------------------------
      1          6           0       -1.063746   -0.627444    0.116268
      2          1           0       -0.881864   -1.081417    1.080734
      3          1           0       -1.872439   -1.102078   -0.445724
      4          6           0       -0.681301    0.734056   -0.082109
      5          1           0       -1.337043    1.543764   -0.392589
      6          6           0        0.681291    0.734062    0.082102
      7          1           0        1.337020    1.543771    0.392611
      8          6           0        1.063755   -0.627434   -0.116268
      9          1           0        0.881884   -1.081423   -1.080728
     10          1           0        1.872448   -1.102051    0.445737
 ---------------------------------------------------------------------
                    Distance matrix (angstroms):
                    1          2          3          4          5
     1  C    0.000000
     2  H    1.081373   0.000000
     3  H    1.093205   1.819819   0.000000
     4  C    1.428041   2.165265   2.218651   0.000000
     5  H    2.246724   3.044576   2.699991   1.087209   0.000000
     6  C    2.213599   2.595512   3.189286   1.372451   2.225898
     7  H    3.248726   3.505506   4.243106   2.225897   2.786961
     8  C    2.140171   2.329023   2.992501   2.213604   3.248736
     9  H    2.329028   2.789754   2.826650   2.595525   3.505535
    10  H    2.992497   2.826638   3.849530   3.189286   4.243107
                    6          7          8          9         10
     6  C    0.000000
     7  H    1.087210   0.000000
     8  C    1.428041   2.246723   0.000000
     9  H    2.165271   3.044589   1.081372   0.000000
    10  H    2.218647   2.699978   1.093204   1.819818   0.000000
 Symmetry turned off by external request.
 Stoichiometry    C4H6
 Framework group  C1[X(C4H6)]
 Deg. of freedom    24
 Full point group                 C1      NOp   1
 Rotational constants (GHZ):          14.2370059           9.3438284           6.1251412
 Leave Link  202 at Thu Apr  6 11:02:16 2023, MaxMem=  1073741824 cpu:               0.0 elap:               0.0
 (Enter /home/gaussian/g16/l301.exe)
 Standard basis: 6-311G(d) (5D, 7F)
 Ernie: Thresh=  0.10000D-02 Tol=  0.10000D-05 Strict=F.
    90 basis functions,   158 primitive gaussians,    94 cartesian basis functions
    15 alpha electrons       15 beta electrons
       nuclear repulsion energy       109.6751226363 Hartrees.
 IExCor=  402 DFT=T Ex+Corr=B3LYP ExCW=0 ScaHFX=  0.200000
 ScaDFX=  0.800000  0.720000  1.000000  0.810000 ScalE2=  1.000000  1.000000
 IRadAn=      5 IRanWt=     -1 IRanGd=            0 ICorTp=0 IEmpDi=141
 NAtoms=   10 NActive=   10 NUniq=   10 SFac= 1.00D+00 NAtFMM=   60 NAOKFM=F Big=F
 Integral buffers will be    131072 words long.
 Raffenetti 2 integral format.
 Two-electron integral symmetry is turned off.
 R6Disp:  Grimme-D3(BJ) Dispersion energy=       -0.0116443742 Hartrees.
 Nuclear repulsion after empirical dispersion term =      109.6634782622 Hartrees.
 Leave Link  301 at Thu Apr  6 11:02:16 2023, MaxMem=  1073741824 cpu:               0.0 elap:               0.0
 (Enter /home/gaussian/g16/l302.exe)
 NPDir=0 NMtPBC=     1 NCelOv=     1 NCel=       1 NClECP=     1 NCelD=      1
         NCelK=      1 NCelE2=     1 NClLst=     1 CellRange=     0.0.
 One-electron integrals computed using PRISM.
 NBasis=    90 RedAO= T EigKep=  1.22D-03  NBF=    90
 NBsUse=    90 1.00D-06 EigRej= -1.00D+00 NBFU=    90
 Precomputing XC quadrature grid using
 IXCGrd= 4 IRadAn=           5 IRanWt=          -1 IRanGd=           0 AccXCQ= 0.00D+00.
 Generated NRdTot=       0 NPtTot=           0 NUsed=           0 NTot=          32
 NSgBfM=    94    94    94    94    94 MxSgAt=    10 MxSgA2=    10.
 Leave Link  302 at Thu Apr  6 11:02:16 2023, MaxMem=  1073741824 cpu:               0.4 elap:               0.1
 (Enter /home/gaussian/g16/l303.exe)
 DipDrv:  MaxL=1.
 Leave Link  303 at Thu Apr  6 11:02:16 2023, MaxMem=  1073741824 cpu:               0.1 elap:               0.0
 (Enter /home/gaussian/g16/l401.exe)
 ExpMin= 1.03D-01 ExpMax= 4.56D+03 ExpMxC= 6.82D+02 IAcc=3 IRadAn=         5 AccDes= 0.00D+00
 Harris functional with IExCor=  402 and IRadAn=       5 diagonalized for initial guess.
 HarFok:  IExCor=  402 AccDes= 0.00D+00 IRadAn=         5 IDoV= 1 UseB2=F ITyADJ=14
 ICtDFT=  3500011 ScaDFX=  1.000000  1.000000  1.000000  1.000000
 FoFCou: FMM=F IPFlag=           0 FMFlag=      100000 FMFlg1=           0
         NFxFlg=           0 DoJE=T BraDBF=F KetDBF=T FulRan=T
         wScrn=  0.000000 ICntrl=       500 IOpCl=  0 I1Cent=   200000004 NGrid=           0
         NMat0=    1 NMatS0=      1 NMatT0=    0 NMatD0=    1 NMtDS0=    0 NMtDT0=    0
 Symmetry not used in FoFCou.
 Harris En= -156.001576590462    
 JPrj=0 DoOrth=F DoCkMO=F.
 Leave Link  401 at Thu Apr  6 11:02:16 2023, MaxMem=  1073741824 cpu:               1.5 elap:               0.2
 (Enter /home/gaussian/g16/l502.exe)
 Keep R1 ints in memory in canonical form, NReq=15734758.
 FoFCou: FMM=F IPFlag=           0 FMFlag=           0 FMFlg1=           0
         NFxFlg=           0 DoJE=F BraDBF=F KetDBF=F FulRan=T
         wScrn=  0.000000 ICntrl=       600 IOpCl=  0 I1Cent=           0 NGrid=           0
         NMat0=    1 NMatS0=   4095 NMatT0=    0 NMatD0=    1 NMtDS0=    0 NMtDT0=    0
 Symmetry not used in FoFCou.
 Two-electron integral symmetry not used.
 Closed shell SCF:
 Using DIIS extrapolation, IDIIS=  1040.
 NGot=  1073741824 LenX=  1065335684 LenY=  1065326407
 Requested convergence on RMS density matrix=1.00D-08 within 128 cycles.
 Requested convergence on MAX density matrix=1.00D-06.
 Requested convergence on             energy=1.00D-06.
 No special actions if energy rises.
 Integral accuracy reduced to 1.0D-05 until final iterations.

 Cycle   1  Pass 0  IDiag  1:
 E= -155.828675520068    
 DIIS: error= 4.46D-02 at cycle   1 NSaved=   1.
 NSaved= 1 IEnMin= 1 EnMin= -155.828675520068     IErMin= 1 ErrMin= 4.46D-02
 ErrMax= 4.46D-02  0.00D+00 EMaxC= 1.00D-01 BMatC= 1.30D-01 BMatP= 1.30D-01
 IDIUse=3 WtCom= 5.54D-01 WtEn= 4.46D-01
 Coeff-Com:  0.100D+01
 Coeff-En:   0.100D+01
 Coeff:      0.100D+01
 Gap=     0.223 Goal=   None    Shift=    0.000
 GapD=    0.223 DampG=1.000 DampE=0.500 DampFc=0.5000 IDamp=-1.
 Damping current iteration by 5.00D-01
 RMSDP=7.11D-03 MaxDP=9.66D-02              OVMax= 1.74D-01

 Cycle   2  Pass 0  IDiag  1:
 E= -155.887370651521     Delta-E=       -0.058695131452 Rises=F Damp=T
 DIIS: error= 6.41D-03 at cycle   2 NSaved=   2.
 NSaved= 2 IEnMin= 2 EnMin= -155.887370651521     IErMin= 2 ErrMin= 6.41D-03
 ErrMax= 6.41D-03  0.00D+00 EMaxC= 1.00D-01 BMatC= 6.00D-03 BMatP= 1.30D-01
 IDIUse=3 WtCom= 9.36D-01 WtEn= 6.41D-02
 Coeff-Com:  0.500D-01 0.950D+00
 Coeff-En:   0.126D+00 0.874D+00
 Coeff:      0.548D-01 0.945D+00
 Gap=     0.237 Goal=   None    Shift=    0.000
 RMSDP=1.57D-03 MaxDP=1.62D-02 DE=-5.87D-02 OVMax= 9.91D-02

 Cycle   3  Pass 0  IDiag  1:
 E= -155.961873864679     Delta-E=       -0.074503213159 Rises=F Damp=F
 DIIS: error= 3.61D-03 at cycle   3 NSaved=   3.
 NSaved= 3 IEnMin= 3 EnMin= -155.961873864679     IErMin= 3 ErrMin= 3.61D-03
 ErrMax= 3.61D-03  0.00D+00 EMaxC= 1.00D-01 BMatC= 1.19D-03 BMatP= 6.00D-03
 IDIUse=3 WtCom= 9.64D-01 WtEn= 3.61D-02
 Coeff-Com: -0.346D-01 0.258D+00 0.776D+00
 Coeff-En:   0.000D+00 0.000D+00 0.100D+01
 Coeff:     -0.334D-01 0.249D+00 0.784D+00
 Gap=     0.218 Goal=   None    Shift=    0.000
 RMSDP=5.10D-04 MaxDP=6.67D-03 DE=-7.45D-02 OVMax= 9.95D-03

 Cycle   4  Pass 0  IDiag  1:
 E= -155.962944931598     Delta-E=       -0.001071066919 Rises=F Damp=F
 DIIS: error= 1.26D-03 at cycle   4 NSaved=   4.
 NSaved= 4 IEnMin= 4 EnMin= -155.962944931598     IErMin= 4 ErrMin= 1.26D-03
 ErrMax= 1.26D-03  0.00D+00 EMaxC= 1.00D-01 BMatC= 1.08D-04 BMatP= 1.19D-03
 IDIUse=3 WtCom= 9.87D-01 WtEn= 1.26D-02
 Coeff-Com: -0.158D-01 0.612D-01 0.296D+00 0.658D+00
 Coeff-En:   0.000D+00 0.000D+00 0.000D+00 0.100D+01
 Coeff:     -0.156D-01 0.604D-01 0.292D+00 0.663D+00
 Gap=     0.219 Goal=   None    Shift=    0.000
 RMSDP=1.28D-04 MaxDP=2.11D-03 DE=-1.07D-03 OVMax= 5.46D-03

 Cycle   5  Pass 0  IDiag  1:
 E= -155.963012825865     Delta-E=       -0.000067894267 Rises=F Damp=F
 DIIS: error= 6.76D-04 at cycle   5 NSaved=   5.
 NSaved= 5 IEnMin= 5 EnMin= -155.963012825865     IErMin= 5 ErrMin= 6.76D-04
 ErrMax= 6.76D-04  0.00D+00 EMaxC= 1.00D-01 BMatC= 3.64D-05 BMatP= 1.08D-04
 IDIUse=3 WtCom= 9.93D-01 WtEn= 6.76D-03
 Coeff-Com: -0.674D-02 0.143D-01 0.110D+00 0.405D+00 0.477D+00
 Coeff-En:   0.000D+00 0.000D+00 0.000D+00 0.264D+00 0.736D+00
 Coeff:     -0.670D-02 0.142D-01 0.110D+00 0.404D+00 0.478D+00
 Gap=     0.219 Goal=   None    Shift=    0.000
 RMSDP=6.45D-05 MaxDP=6.38D-04 DE=-6.79D-05 OVMax= 2.57D-03

 Cycle   6  Pass 0  IDiag  1:
 E= -155.963050177563     Delta-E=       -0.000037351698 Rises=F Damp=F
 DIIS: error= 6.68D-05 at cycle   6 NSaved=   6.
 NSaved= 6 IEnMin= 6 EnMin= -155.963050177563     IErMin= 6 ErrMin= 6.68D-05
 ErrMax= 6.68D-05  0.00D+00 EMaxC= 1.00D-01 BMatC= 2.45D-07 BMatP= 3.64D-05
 IDIUse=1 WtCom= 1.00D+00 WtEn= 0.00D+00
 Coeff-Com: -0.115D-02 0.130D-02 0.182D-01 0.865D-01 0.147D+00 0.748D+00
 Coeff:     -0.115D-02 0.130D-02 0.182D-01 0.865D-01 0.147D+00 0.748D+00
 Gap=     0.219 Goal=   None    Shift=    0.000
 RMSDP=8.31D-06 MaxDP=6.61D-05 DE=-3.74D-05 OVMax= 2.64D-04

 Initial convergence to 1.0D-05 achieved.  Increase integral accuracy.
 Cycle   7  Pass 1  IDiag  1:
 E= -155.963052912678     Delta-E=       -0.000002735115 Rises=F Damp=F
 DIIS: error= 8.26D-06 at cycle   1 NSaved=   1.
 NSaved= 1 IEnMin= 1 EnMin= -155.963052912678     IErMin= 1 ErrMin= 8.26D-06
 ErrMax= 8.26D-06  0.00D+00 EMaxC= 1.00D-01 BMatC= 4.06D-09 BMatP= 4.06D-09
 IDIUse=1 WtCom= 1.00D+00 WtEn= 0.00D+00
 Coeff-Com:  0.100D+01
 Coeff:      0.100D+01
 Gap=     0.219 Goal=   None    Shift=    0.000
 RMSDP=8.31D-06 MaxDP=6.61D-05 DE=-2.74D-06 OVMax= 6.48D-05

 Cycle   8  Pass 1  IDiag  1:
 E= -155.963052913552     Delta-E=       -0.000000000874 Rises=F Damp=F
 DIIS: error= 8.59D-06 at cycle   2 NSaved=   2.
 NSaved= 2 IEnMin= 2 EnMin= -155.963052913552     IErMin= 1 ErrMin= 8.26D-06
 ErrMax= 8.59D-06  0.00D+00 EMaxC= 1.00D-01 BMatC= 3.84D-09 BMatP= 4.06D-09
 IDIUse=1 WtCom= 1.00D+00 WtEn= 0.00D+00
 Coeff-Com:  0.492D+00 0.508D+00
 Coeff:      0.492D+00 0.508D+00
 Gap=     0.219 Goal=   None    Shift=    0.000
 RMSDP=8.63D-07 MaxDP=9.03D-06 DE=-8.74D-10 OVMax= 3.49D-05

 Cycle   9  Pass 1  IDiag  1:
 E= -155.963052917494     Delta-E=       -0.000000003942 Rises=F Damp=F
 DIIS: error= 2.18D-06 at cycle   3 NSaved=   3.
 NSaved= 3 IEnMin= 3 EnMin= -155.963052917494     IErMin= 3 ErrMin= 2.18D-06
 ErrMax= 2.18D-06  0.00D+00 EMaxC= 1.00D-01 BMatC= 5.22D-10 BMatP= 3.84D-09
 IDIUse=1 WtCom= 1.00D+00 WtEn= 0.00D+00
 Coeff-Com:  0.157D+00 0.282D+00 0.561D+00
 Coeff:      0.157D+00 0.282D+00 0.561D+00
 Gap=     0.219 Goal=   None    Shift=    0.000
 RMSDP=2.34D-07 MaxDP=2.97D-06 DE=-3.94D-09 OVMax= 8.85D-06

 Cycle  10  Pass 1  IDiag  1:
 E= -155.963052917998     Delta-E=       -0.000000000504 Rises=F Damp=F
 DIIS: error= 3.11D-07 at cycle   4 NSaved=   4.
 NSaved= 4 IEnMin= 4 EnMin= -155.963052917998     IErMin= 4 ErrMin= 3.11D-07
 ErrMax= 3.11D-07  0.00D+00 EMaxC= 1.00D-01 BMatC= 6.86D-12 BMatP= 5.22D-10
 IDIUse=1 WtCom= 1.00D+00 WtEn= 0.00D+00
 Coeff-Com:  0.829D-02 0.392D-01 0.139D+00 0.813D+00
 Coeff:      0.829D-02 0.392D-01 0.139D+00 0.813D+00
 Gap=     0.219 Goal=   None    Shift=    0.000
 RMSDP=5.18D-08 MaxDP=5.38D-07 DE=-5.04D-10 OVMax= 1.02D-06

 Cycle  11  Pass 1  IDiag  1:
 E= -155.963052918003     Delta-E=       -0.000000000005 Rises=F Damp=F
 DIIS: error= 1.01D-07 at cycle   5 NSaved=   5.
 NSaved= 5 IEnMin= 5 EnMin= -155.963052918003     IErMin= 5 ErrMin= 1.01D-07
 ErrMax= 1.01D-07  0.00D+00 EMaxC= 1.00D-01 BMatC= 1.44D-12 BMatP= 6.86D-12
 IDIUse=1 WtCom= 1.00D+00 WtEn= 0.00D+00
 Coeff-Com: -0.449D-02 0.464D-02 0.387D-01 0.398D+00 0.563D+00
 Coeff:     -0.449D-02 0.464D-02 0.387D-01 0.398D+00 0.563D+00
 Gap=     0.219 Goal=   None    Shift=    0.000
 RMSDP=1.50D-08 MaxDP=1.92D-07 DE=-4.89D-12 OVMax= 7.25D-07

 Cycle  12  Pass 1  IDiag  1:
 E= -155.963052918005     Delta-E=       -0.000000000002 Rises=F Damp=F
 DIIS: error= 7.40D-08 at cycle   6 NSaved=   6.
 NSaved= 6 IEnMin= 6 EnMin= -155.963052918005     IErMin= 6 ErrMin= 7.40D-08
 ErrMax= 7.40D-08  0.00D+00 EMaxC= 1.00D-01 BMatC= 2.44D-13 BMatP= 1.44D-12
 IDIUse=1 WtCom= 1.00D+00 WtEn= 0.00D+00
 Coeff-Com: -0.342D-02-0.264D-03 0.127D-01 0.181D+00 0.353D+00 0.457D+00
 Coeff:     -0.342D-02-0.264D-03 0.127D-01 0.181D+00 0.353D+00 0.457D+00
 Gap=     0.219 Goal=   None    Shift=    0.000
 RMSDP=5.32D-09 MaxDP=7.68D-08 DE=-1.82D-12 OVMax= 3.76D-07

 SCF Done:  E(RB3LYP) =  -155.963052918     A.U. after   12 cycles
            NFock= 12  Conv=0.53D-08     -V/T= 2.0045
 KE= 1.552626890599D+02 PE=-5.806446757052D+02 EE= 1.597554554652D+02
 Leave Link  502 at Thu Apr  6 11:02:18 2023, MaxMem=  1073741824 cpu:              10.9 elap:               1.4
 (Enter /home/gaussian/g16/l801.exe)
 DoSCS=F DFT=T ScalE2(SS,OS)=  1.000000  1.000000
 Range of M.O.s used for correlation:     1    90
 NBasis=    90 NAE=    15 NBE=    15 NFC=     0 NFV=     0
 NROrb=     90 NOA=    15 NOB=    15 NVA=    75 NVB=    75
 Leave Link  801 at Thu Apr  6 11:02:18 2023, MaxMem=  1073741824 cpu:               0.0 elap:               0.0
 (Enter /home/gaussian/g16/l1101.exe)
 Using compressed storage, NAtomX=    10.
 Will process     11 centers per pass.
 R6Disp: Adding Grimme-D3(BJ) dispersion energy 1st derivatives to the gradient.
 Leave Link 1101 at Thu Apr  6 11:02:18 2023, MaxMem=  1073741824 cpu:               0.4 elap:               0.1
 (Enter /home/gaussian/g16/l1102.exe)
 Symmetrizing basis deriv contribution to polar:
 IMax=3 JMax=2 DiffMx= 0.00D+00
 Leave Link 1102 at Thu Apr  6 11:02:18 2023, MaxMem=  1073741824 cpu:               0.1 elap:               0.0
 (Enter /home/gaussian/g16/l1110.exe)
 Forming Gx(P) for the SCF density, NAtomX=    10.
 Integral derivatives from FoFJK, PRISM(SPDF).
 Do as many integral derivatives as possible in FoFJK.
 G2DrvN: MDV=    1073740678.
 G2DrvN: will do    11 centers at a time, making    1 passes.
 Calling FoFCou, ICntrl=  3107 FMM=F I1Cent=   0 AccDes= 0.00D+00.
 FoFJK:  IHMeth= 1 ICntrl=    3107 DoSepK=F KAlg= 0 I1Cent=           0 FoldK=F
 IRaf=         0 NMat=       1 IRICut=       1 DoRegI=T DoRafI=F ISym2E= 0 IDoP0=0 IntGTp=1.
 FoFCou: FMM=F IPFlag=           0 FMFlag=      100000 FMFlg1=           0
         NFxFlg=           0 DoJE=F BraDBF=F KetDBF=F FulRan=T
         wScrn=  0.000000 ICntrl=      3107 IOpCl=  0 I1Cent=           0 NGrid=           0
         NMat0=    1 NMatS0=      1 NMatT0=    0 NMatD0=    1 NMtDS0=    0 NMtDT0=    0
 Symmetry not used in FoFCou.
 End of G2Drv F.D. properties file   721 does not exist.
 End of G2Drv F.D. properties file   722 does not exist.
 End of G2Drv F.D. properties file   788 does not exist.
 Leave Link 1110 at Thu Apr  6 11:02:20 2023, MaxMem=  1073741824 cpu:              18.2 elap:               2.3
 (Enter /home/gaussian/g16/l1002.exe)
 Minotr:  Closed shell wavefunction.
          IDoAtm=1111111111
          Direct CPHF calculation.
          Differentiating once with respect to nuclear coordinates.
          Requested convergence is 1.0D-08 RMS, and 1.0D-07 maximum.
          Secondary convergence is 1.0D-12 RMS, and 1.0D-12 maximum.
          NewPWx=T KeepS1=F KeepF1=F KeepIn=T MapXYZ=F SortEE=F KeepMc=T.
         2953 words used for storage of precomputed grid.
 Keep R1 ints in memory in canonical form, NReq=15716407.
 FoFCou: FMM=F IPFlag=           0 FMFlag=           0 FMFlg1=           0
         NFxFlg=           0 DoJE=F BraDBF=F KetDBF=F FulRan=T
         wScrn=  0.000000 ICntrl=       600 IOpCl=  0 I1Cent=           0 NGrid=           0
         NMat0=    1 NMatS0=   4095 NMatT0=    0 NMatD0=    1 NMtDS0=    0 NMtDT0=    0
 Symmetry not used in FoFCou.
 Two-electron integral symmetry not used.
          MDV=    1073741824 using IRadAn=       1.
          Solving linear equations simultaneously, MaxMat=       0.
          There are    33 degrees of freedom in the 1st order CPHF.  IDoFFX=6 NUNeed=     0.
     27 vectors produced by pass  0 Test12= 3.41D-15 3.03D-09 XBig12= 9.59D-02 1.22D-01.
 AX will form    27 AO Fock derivatives at one time.
     27 vectors produced by pass  1 Test12= 3.41D-15 3.03D-09 XBig12= 5.99D-03 2.61D-02.
     27 vectors produced by pass  2 Test12= 3.41D-15 3.03D-09 XBig12= 4.89D-05 1.37D-03.
     27 vectors produced by pass  3 Test12= 3.41D-15 3.03D-09 XBig12= 1.18D-07 6.87D-05.
     27 vectors produced by pass  4 Test12= 3.41D-15 3.03D-09 XBig12= 1.43D-10 1.74D-06.
     21 vectors produced by pass  5 Test12= 3.41D-15 3.03D-09 XBig12= 1.40D-13 6.05D-08.
 InvSVY:  IOpt=1 It=  1 EMax= 2.11D-15
 Solved reduced A of dimension   156 with    27 vectors.
 End of Minotr F.D. properties file   721 does not exist.
 End of Minotr F.D. properties file   722 does not exist.
 End of Minotr F.D. properties file   788 does not exist.
 Leave Link 1002 at Thu Apr  6 11:02:23 2023, MaxMem=  1073741824 cpu:              21.0 elap:               2.7
 (Enter /home/gaussian/g16/l601.exe)
 Copying SCF densities to generalized density rwf, IOpCl= 0 IROHF=0.

 **********************************************************************

            Population analysis using the SCF Density.

 **********************************************************************

 Alpha  occ. eigenvalues --  -10.18421 -10.18420 -10.16855 -10.16794  -0.83311
 Alpha  occ. eigenvalues --   -0.68670  -0.63045  -0.53219  -0.49378  -0.44026
 Alpha  occ. eigenvalues --   -0.42084  -0.37565  -0.37297  -0.24636  -0.24437
 Alpha virt. eigenvalues --   -0.02573   0.01259   0.06326   0.08128   0.09174
 Alpha virt. eigenvalues --    0.10834   0.12055   0.13578   0.22287   0.28398
 Alpha virt. eigenvalues --    0.30686   0.33871   0.34498   0.37454   0.38204
 Alpha virt. eigenvalues --    0.40690   0.42483   0.43898   0.48745   0.50316
 Alpha virt. eigenvalues --    0.54535   0.54613   0.59326   0.59866   0.63090
 Alpha virt. eigenvalues --    0.65398   0.68094   0.69565   0.72967   0.77884
 Alpha virt. eigenvalues --    0.78044   0.82917   0.87907   1.12062   1.16753
 Alpha virt. eigenvalues --    1.33955   1.39723   1.41179   1.43917   1.52517
 Alpha virt. eigenvalues --    1.54719   1.58162   1.65072   1.65910   1.70603
 Alpha virt. eigenvalues --    1.77974   1.85283   1.89450   1.91108   1.98993
 Alpha virt. eigenvalues --    2.05177   2.09834   2.25302   2.27273   2.29779
 Alpha virt. eigenvalues --    2.41366   2.46558   2.61154   2.63757   2.68412
 Alpha virt. eigenvalues --    2.78011   2.92220   3.03081   3.12635   3.16223
 Alpha virt. eigenvalues --    3.20357   3.24063   3.26061   3.54323   3.70819
 Alpha virt. eigenvalues --    4.04856  23.30407  23.64246  23.81406  24.12362
          Condensed to atoms (all electrons):
               1          2          3          4          5          6
     1  C    5.318510   0.396316   0.367624   0.447824  -0.045849  -0.140900
     2  H    0.396316   0.465462  -0.042325  -0.024387   0.002355  -0.027163
     3  H    0.367624  -0.042325   0.512588  -0.050102  -0.001357   0.012483
     4  C    0.447824  -0.024387  -0.050102   5.066951   0.391437   0.536607
     5  H   -0.045849   0.002355  -0.001357   0.391437   0.502299  -0.044975
     6  C   -0.140900  -0.027163   0.012483   0.536607  -0.044975   5.066948
     7  H    0.012956  -0.000169  -0.000584  -0.044975  -0.000351   0.391437
     8  C    0.127494  -0.022308   0.003612  -0.140899   0.012956   0.447827
     9  H   -0.022308  -0.002356   0.002311  -0.027162  -0.000169  -0.024386
    10  H    0.003612   0.002311  -0.000806   0.012483  -0.000584  -0.050102
               7          8          9         10
     1  C    0.012956   0.127494  -0.022308   0.003612
     2  H   -0.000169  -0.022308  -0.002356   0.002311
     3  H   -0.000584   0.003612   0.002311  -0.000806
     4  C   -0.044975  -0.140899  -0.027162   0.012483
     5  H   -0.000351   0.012956  -0.000169  -0.000584
     6  C    0.391437   0.447827  -0.024386  -0.050102
     7  H    0.502301  -0.045849   0.002355  -0.001357
     8  C   -0.045849   5.318505   0.396315   0.367625
     9  H    0.002355   0.396315   0.465460  -0.042325
    10  H   -0.001357   0.367625  -0.042325   0.512587
 Mulliken charges:
               1
     1  C   -0.465279
     2  H    0.252264
     3  H    0.196555
     4  C   -0.167777
     5  H    0.184236
     6  C   -0.167775
     7  H    0.184235
     8  C   -0.465278
     9  H    0.252264
    10  H    0.196555
 Sum of Mulliken charges =  -0.00000
 Mulliken charges with hydrogens summed into heavy atoms:
               1
     1  C   -0.016461
     4  C    0.016459
     6  C    0.016460
     8  C   -0.016458
 APT charges:
               1
     1  C   -0.935321
     2  H    0.440812
     3  H    0.493461
     4  C   -0.501587
     5  H    0.502632
     6  C   -0.501582
     7  H    0.502629
     8  C   -0.935319
     9  H    0.440814
    10  H    0.493460
 Sum of APT charges =  -0.00000
 APT charges with hydrogens summed into heavy atoms:
               1
     1  C   -0.001048
     4  C    0.001044
     6  C    0.001047
     8  C   -0.001044
 Electronic spatial extent (au):  <R**2>=            253.6137
 Charge=             -0.0000 electrons
 Dipole moment (field-independent basis, Debye):
    X=              0.0000    Y=             -0.1949    Z=              0.0000  Tot=              0.1949
 Quadrupole moment (field-independent basis, Debye-Ang):
   XX=            -24.5256   YY=            -24.6299   ZZ=            -26.3416
   XY=             -0.0000   XZ=              1.2476   YZ=              0.0000
 Traceless Quadrupole moment (field-independent basis, Debye-Ang):
   XX=              0.6401   YY=              0.5358   ZZ=             -1.1759
   XY=             -0.0000   XZ=              1.2476   YZ=              0.0000
 Octapole moment (field-independent basis, Debye-Ang**2):
  XXX=             -0.0000  YYY=              2.6110  ZZZ=              0.0001  XYY=             -0.0001
  XXY=             -0.1457  XXZ=              0.0001  XZZ=              0.0001  YZZ=             -2.2796
  YYZ=              0.0000  XYZ=              1.1162
 Hexadecapole moment (field-independent basis, Debye-Ang**3):
 XXXX=           -184.2118 YYYY=           -129.0025 ZZZZ=            -43.2806 XXXY=             -0.0002
 XXXZ=              7.5720 YYYX=             -0.0001 YYYZ=              0.0002 ZZZX=             -0.1277
 ZZZY=              0.0001 XXYY=            -46.8817 XXZZ=            -38.9364 YYZZ=            -28.4751
 XXYZ=              0.0001 YYXZ=              2.0679 ZZXY=             -0.0000
 N-N= 1.096634782622D+02 E-N=-5.806446763827D+02  KE= 1.552626890599D+02
  Exact polarizability:       0.000       0.000       0.000       0.000       0.000       0.000
 Approx polarizability:     107.406       0.000      72.166       3.865       0.000      41.378
 No NMR shielding tensors so no spin-rotation constants.
 Leave Link  601 at Thu Apr  6 11:02:23 2023, MaxMem=  1073741824 cpu:               0.3 elap:               0.1
 (Enter /home/gaussian/g16/l701.exe)
 ... and contract with generalized density number  0.
 Compute integral second derivatives.
 R6Disp: Adding Grimme-D3(BJ) dispersion energy 2nd derivatives to the Hessian.
 Leave Link  701 at Thu Apr  6 11:02:23 2023, MaxMem=  1073741824 cpu:               0.5 elap:               0.1
 (Enter /home/gaussian/g16/l702.exe)
 L702 exits ... SP integral derivatives will be done elsewhere.
 Leave Link  702 at Thu Apr  6 11:02:23 2023, MaxMem=  1073741824 cpu:               0.0 elap:               0.0
 (Enter /home/gaussian/g16/l703.exe)
 Integral derivatives from FoFJK, PRISM(SPDF).
 Compute integral second derivatives, UseDBF=F ICtDFT=           0.
 Calling FoFJK, ICntrl=    100127 FMM=F ISym2X=0 I1Cent= 0 IOpClX= 0 NMat=1 NMatS=1 NMatT=0.
 FoFJK:  IHMeth= 1 ICntrl=  100127 DoSepK=F KAlg= 0 I1Cent=           0 FoldK=F
 IRaf=         0 NMat=       1 IRICut=       1 DoRegI=T DoRafI=F ISym2E= 0 IDoP0=0 IntGTp=1.
 FoFCou: FMM=F IPFlag=           0 FMFlag=      100000 FMFlg1=         800
         NFxFlg=           0 DoJE=F BraDBF=F KetDBF=F FulRan=T
         wScrn=  0.000000 ICntrl=    100127 IOpCl=  0 I1Cent=           0 NGrid=           0
         NMat0=    1 NMatS0=      1 NMatT0=    0 NMatD0=    1 NMtDS0=    0 NMtDT0=    0
 Symmetry not used in FoFCou.
 Leave Link  703 at Thu Apr  6 11:02:28 2023, MaxMem=  1073741824 cpu:              40.8 elap:               5.1
 (Enter /home/gaussian/g16/l716.exe)
 Dipole        = 1.67828862D-06-7.66768305D-02 1.14136839D-05
 Polarizability= 0.00000000D+00 0.00000000D+00 0.00000000D+00
                 0.00000000D+00 0.00000000D+00 0.00000000D+00
 -------------------------------------------------------------------
 Center     Atomic                   Forces (Hartrees/Bohr)
 Number     Number              X              Y              Z
 -------------------------------------------------------------------
      1        6          -0.000000025   -0.000002645    0.000000739
      2        1          -0.000000827   -0.000000599   -0.000000528
      3        1           0.000000565    0.000000451   -0.000000473
      4        6          -0.000010506    0.000001020    0.000003321
      5        1           0.000000429    0.000000986   -0.000002716
      6        6           0.000011729    0.000001398   -0.000002034
      7        1          -0.000000659    0.000000818    0.000001405
      8        6          -0.000001076   -0.000001430   -0.000000227
      9        1           0.000000693   -0.000000101    0.000000015
     10        1          -0.000000323    0.000000101    0.000000499
 -------------------------------------------------------------------
 Cartesian Forces:  Max     0.000011729 RMS     0.000003117
 Z-matrix is all fixed cartesians, so copy forces.
 Force constants in Cartesian coordinates: 
                1             2             3             4             5 
      1  0.314201D+00
      2  0.203111D+00  0.515332D+00
      3  0.159465D+00 -0.101839D+00  0.493839D+00
      4 -0.248734D-01 -0.499190D-02 -0.552112D-01  0.495188D-01
      5  0.430207D-02 -0.792257D-01  0.107416D+00 -0.103734D-01  0.982986D-01
      6 -0.675439D-01  0.121058D+00 -0.285988D+00  0.617292D-01 -0.118413D+00
      7 -0.192847D+00 -0.781492D-01 -0.110790D+00 -0.219775D-02 -0.217307D-02
      8 -0.757706D-01 -0.107496D+00 -0.516761D-01  0.874062D-02  0.674411D-02
      9 -0.995405D-01 -0.568149D-01 -0.119411D+00 -0.200213D-01 -0.121440D-01
     10 -0.105658D+00 -0.438208D-01 -0.490797D-02  0.114464D-01 -0.608041D-02
     11 -0.902151D-01 -0.280851D+00  0.412527D-01  0.134210D-01 -0.231668D-01
     12 -0.148773D-01  0.469278D-01 -0.749301D-01  0.487035D-02  0.237023D-01
     13  0.835666D-02 -0.691254D-02  0.540124D-02  0.471492D-03 -0.186845D-02
     14  0.129690D-01 -0.577973D-02  0.844569D-02  0.117448D-02 -0.238370D-02
     15 -0.793783D-02  0.151962D-01  0.338124D-03 -0.644042D-03  0.104353D-02
     16 -0.226801D-01 -0.619640D-01 -0.460657D-02 -0.152427D-01  0.984866D-02
     17 -0.696718D-01 -0.346415D-02 -0.593641D-02  0.780798D-02 -0.817866D-02
     18  0.947948D-02 -0.664307D-02  0.570567D-02  0.388376D-02  0.338987D-03
     19 -0.516666D-02 -0.306993D-03 -0.412452D-02  0.971351D-03 -0.194153D-03
     20 -0.339382D-02  0.109345D-02 -0.385189D-02  0.140195D-02 -0.270633D-03
     21  0.699674D-02 -0.885178D-02  0.913701D-02 -0.398405D-02  0.659231D-03
     22  0.414696D-01 -0.202956D-01  0.921081D-02 -0.220722D-01  0.804927D-02
     23  0.202970D-01 -0.431442D-01  0.646355D-02 -0.187207D-01  0.820336D-02
     24  0.921105D-02 -0.646326D-02 -0.282806D-01  0.106207D-01 -0.312284D-02
     25 -0.220722D-01  0.187202D-01  0.106206D-01  0.361468D-02 -0.190253D-02
     26 -0.804943D-02  0.820340D-02  0.312284D-02  0.190257D-02 -0.378206D-03
     27  0.114010D-01 -0.631640D-02 -0.345754D-02 -0.194757D-02  0.606129D-03
     28  0.927038D-02 -0.538992D-02 -0.505728D-02 -0.163670D-02  0.392030D-03
     29  0.642194D-02 -0.466790D-02 -0.339750D-02 -0.362564D-03  0.357613D-03
     30 -0.665390D-02  0.374623D-02  0.304700D-02  0.704040D-03 -0.862021D-04
                6             7             8             9            10 
      6  0.292171D+00
      7 -0.287284D-02  0.190490D+00
      8  0.726925D-02  0.998760D-01  0.100440D+00
      9 -0.100640D-01  0.119943D+00  0.563349D-01  0.120244D+00
     10 -0.810324D-02 -0.100410D-01 -0.182902D-01  0.106227D-01  0.697986D+00
     11 -0.854527D-02 -0.122977D-01  0.455511D-02  0.101822D-01 -0.909519D-01
     12  0.267936D-02 -0.258392D-02 -0.144417D-01  0.516382D-02  0.105984D+00
     13  0.434195D-03 -0.172548D-03  0.709675D-03 -0.272189D-03 -0.154782D+00
     14 -0.592833D-03 -0.450011D-03  0.192975D-03 -0.656705D-03  0.113982D+00
     15  0.282849D-03  0.109348D-02 -0.436851D-04 -0.897154D-03 -0.702671D-01
     16  0.578451D-02  0.768548D-02 -0.702630D-02 -0.550784D-02 -0.402141D+00
     17 -0.695627D-02 -0.113530D-01 -0.941616D-03  0.586697D-02 -0.118939D-01
     18  0.345783D-02 -0.308168D-02 -0.432719D-03  0.341934D-02 -0.451838D-01
     19 -0.136622D-03 -0.133109D-02 -0.140007D-02  0.108502D-02 -0.657185D-02
     20 -0.267167D-03 -0.123092D-02  0.642735D-03  0.115036D-02 -0.208588D-02
     21  0.101059D-02  0.245355D-02  0.710105D-04 -0.827881D-03  0.161856D-01
     22  0.114011D-01  0.927033D-02 -0.642189D-02 -0.665377D-02 -0.226813D-01
     23  0.631657D-02  0.539014D-02 -0.466800D-02 -0.374635D-02  0.619637D-01
     24 -0.345757D-02 -0.505724D-02  0.339746D-02  0.304688D-02 -0.460728D-02
     25 -0.194757D-02 -0.163668D-02  0.362553D-03  0.704045D-03 -0.152422D-01
     26 -0.606150D-03 -0.392041D-03  0.357599D-03  0.862034D-04 -0.984866D-02
     27  0.674878D-03  0.125507D-02 -0.737038D-03 -0.766515D-03  0.578444D-02
     28  0.125509D-02  0.781170D-03 -0.779771D-03 -0.358870D-03  0.768517D-02
     29  0.737049D-03  0.779771D-03  0.172664D-03 -0.258722D-03  0.702623D-02
     30 -0.766539D-03 -0.358880D-03  0.258708D-03  0.915715D-04 -0.550766D-02
               11            12            13            14            15 
     11  0.616959D+00
     12 -0.113085D+00  0.175135D+00
     13  0.117683D+00 -0.531943D-01  0.158557D+00
     14 -0.210211D+00  0.596810D-01 -0.133621D+00  0.213833D+00
     15  0.497987D-01 -0.595211D-01  0.558123D-01 -0.700556D-01  0.477952D-01
     16  0.118914D-01 -0.451833D-01 -0.657175D-02  0.208535D-02  0.161857D-01
     17 -0.979984D-01 -0.942573D-02  0.227464D-01  0.329625D-02 -0.394650D-02
     18  0.942404D-02 -0.650446D-01 -0.529636D-02  0.955401D-04  0.393509D-02
     19 -0.227466D-01 -0.529699D-02 -0.331883D-03  0.638040D-03  0.291285D-03
     20  0.329590D-02 -0.956097D-04 -0.638041D-03 -0.414129D-03 -0.114387D-03
     21  0.394652D-02  0.393516D-02  0.291202D-03  0.114417D-03 -0.125296D-02
     22  0.696710D-01  0.947931D-02 -0.516652D-02  0.339358D-02  0.699676D-02
     23 -0.346242D-02  0.664326D-02  0.306989D-03  0.109338D-02  0.885201D-02
     24  0.593709D-02  0.570582D-02 -0.412441D-02  0.385170D-02  0.913717D-02
     25 -0.780806D-02  0.388350D-02  0.971284D-03 -0.140186D-02 -0.398405D-02
     26 -0.817851D-02 -0.338725D-03  0.194149D-03 -0.270636D-03 -0.659259D-03
     27  0.695623D-02  0.345762D-02 -0.136604D-03  0.267148D-03  0.101060D-02
     28  0.113530D-01 -0.308168D-02 -0.133104D-02  0.123087D-02  0.245359D-02
     29 -0.941565D-03  0.432663D-03  0.140006D-02  0.642767D-03 -0.710049D-04
     30 -0.586699D-02  0.341917D-02  0.108497D-02 -0.115035D-02 -0.827901D-03
               16            17            18            19            20 
     16  0.697982D+00
     17  0.909486D-01  0.616955D+00
     18  0.105987D+00  0.113090D+00  0.175140D+00
     19 -0.154777D+00 -0.117679D+00 -0.531972D-01  0.158551D+00
     20 -0.113977D+00 -0.210209D+00 -0.596855D-01  0.133617D+00  0.213832D+00
     21 -0.702705D-01 -0.498045D-01 -0.595259D-01  0.558155D-01  0.700609D-01
     22 -0.105660D+00  0.902179D-01 -0.148779D-01  0.835675D-02 -0.129687D-01
     23  0.438229D-01 -0.280849D+00 -0.469278D-01  0.691295D-02 -0.577971D-02
     24 -0.490870D-02 -0.412514D-01 -0.749311D-01  0.540163D-02 -0.844627D-02
     25  0.114464D-01 -0.134206D-01  0.487091D-02  0.471505D-03 -0.117445D-02
     26  0.608048D-02 -0.231664D-01 -0.237020D-01  0.186858D-02 -0.238376D-02
     27 -0.810330D-02  0.854548D-02  0.267961D-02  0.434150D-03  0.592881D-03
     28 -0.100414D-01  0.122975D-01 -0.258454D-02 -0.172547D-03  0.449970D-03
     29  0.182901D-01  0.455531D-02  0.144420D-01 -0.709702D-03  0.193019D-03
     30  0.106226D-01 -0.101820D-01  0.516393D-02 -0.272169D-03  0.656734D-03
               21            22            23            24            25 
     21  0.477999D-01
     22 -0.793749D-02  0.314204D+00
     23 -0.151959D-01 -0.203112D+00  0.515328D+00
     24  0.338288D-03  0.159466D+00  0.101842D+00  0.493842D+00
     25 -0.644104D-03 -0.248727D-01  0.499241D-02 -0.552084D-01  0.495173D-01
     26 -0.104355D-02 -0.430183D-02 -0.792297D-01 -0.107421D+00  0.103733D-01
     27  0.282941D-03 -0.675409D-01 -0.121062D+00 -0.285987D+00  0.617263D-01
     28  0.109359D-02 -0.192848D+00  0.781469D-01 -0.110793D+00 -0.219744D-02
     29  0.436914D-04  0.757686D-01 -0.107493D+00  0.516758D-01 -0.874093D-02
     30 -0.897168D-03 -0.995436D-01  0.568148D-01 -0.119414D+00 -0.200213D-01
               26            27            28            29            30 
     26  0.983020D-01
     27  0.118418D+00  0.292169D+00
     28  0.217290D-02 -0.287270D-02  0.190491D+00
     29  0.674417D-02 -0.726959D-02 -0.998735D-01  0.100437D+00
     30  0.121436D-01 -0.100642D-01  0.119946D+00 -0.563345D-01  0.120248D+00
 Leave Link  716 at Thu Apr  6 11:02:28 2023, MaxMem=  1073741824 cpu:               0.0 elap:               0.0
 (Enter /home/gaussian/g16/l123.exe)
 IRC-IRC-IRC-IRC-IRC-IRC-IRC-IRC-IRC-IRC-IRC-IRC-IRC-IRC-IRC-IRC-IRC-IRC
          ******** Start new reaction path calculation ********
 Current Structure is TS -> form Hessian eigenvectors.
                            Diagonalizing Hessian.
 Supplied step size of   0.0500 bohr.
    Integration on MW PES will use step size of   0.0736 sqrt(amu)*bohr.
 Point Number:   0          Path Number:   1
 Calculating another point on the path.
 Point Number  1 in REVERSE path direction.
 Using LQA Reaction Path Following.
 IRC-IRC-IRC-IRC-IRC-IRC-IRC-IRC-IRC-IRC-IRC-IRC-IRC-IRC-IRC-IRC-IRC-IRC
 Leave Link  123 at Thu Apr  6 11:02:28 2023, MaxMem=  1073741824 cpu:               0.0 elap:               0.0
 (Enter /home/gaussian/g16/l202.exe)
                          Input orientation:                          
 ---------------------------------------------------------------------
 Center     Atomic      Atomic             Coordinates (Angstroms)
 Number     Number       Type             X           Y           Z
 ---------------------------------------------------------------------
      1          6           0       -1.058568   -0.653097    0.115956
      2          1           0       -0.889823   -1.100093    1.086389
      3          1           0       -1.862569   -1.130650   -0.450679
      4          6           0       -0.680393    0.712566   -0.081367
      5          1           0       -1.338403    1.522548   -0.386282
      6          6           0        0.680384    0.712572    0.081362
      7          1           0        1.338381    1.522555    0.386306
      8          6           0        1.058578   -0.653088   -0.115954
      9          1           0        0.889843   -1.100099   -1.086382
     10          1           0        1.862578   -1.130623    0.450694
 ---------------------------------------------------------------------
                    Distance matrix (angstroms):
                    1          2          3          4          5
     1  C    0.000000
     2  H    1.081675   0.000000
     3  H    1.093412   1.819271   0.000000
     4  C    1.430731   2.166391   2.220670   0.000000
     5  H    2.250330   3.041090   2.705245   1.087208   0.000000
     6  C    2.211381   2.600266   3.185458   1.370472   2.224916
     7  H    3.248371   3.511878   4.241004   2.224915   2.786048
     8  C    2.129810   2.332747   2.978793   2.211386   3.248382
     9  H    2.332753   2.808585   2.825036   2.600279   3.511908
    10  H    2.978788   2.825023   3.832649   3.185458   4.241005
                    6          7          8          9         10
     6  C    0.000000
     7  H    1.087209   0.000000
     8  C    1.430731   2.250328   0.000000
     9  H    2.166396   3.041103   1.081674   0.000000
    10  H    2.220666   2.705232   1.093411   1.819271   0.000000
 Symmetry turned off by external request.
 Stoichiometry    C4H6
 Framework group  C1[X(C4H6)]
 Deg. of freedom    24
 Full point group                 C1      NOp   1
 Rotational constants (GHZ):          14.1692261           9.3981840           6.1384764
 Leave Link  202 at Thu Apr  6 11:02:28 2023, MaxMem=  1073741824 cpu:               0.0 elap:               0.0
 (Enter /home/gaussian/g16/l301.exe)
 Standard basis: 6-311G(d) (5D, 7F)
 Ernie: Thresh=  0.10000D-02 Tol=  0.10000D-05 Strict=F.
    90 basis functions,   158 primitive gaussians,    94 cartesian basis functions
    15 alpha electrons       15 beta electrons
       nuclear repulsion energy       109.6979843060 Hartrees.
 IExCor=  402 DFT=T Ex+Corr=B3LYP ExCW=0 ScaHFX=  0.200000
 ScaDFX=  0.800000  0.720000  1.000000  0.810000 ScalE2=  1.000000  1.000000
 IRadAn=      5 IRanWt=     -1 IRanGd=            0 ICorTp=0 IEmpDi=141
 NAtoms=   10 NActive=   10 NUniq=   10 SFac= 1.00D+00 NAtFMM=   60 NAOKFM=F Big=F
 Integral buffers will be    131072 words long.
 Raffenetti 2 integral format.
 Two-electron integral symmetry is turned off.
 R6Disp:  Grimme-D3(BJ) Dispersion energy=       -0.0116087309 Hartrees.
 Nuclear repulsion after empirical dispersion term =      109.6863755751 Hartrees.
 Leave Link  301 at Thu Apr  6 11:02:28 2023, MaxMem=  1073741824 cpu:               0.1 elap:               0.0
 (Enter /home/gaussian/g16/l302.exe)
 NPDir=0 NMtPBC=     1 NCelOv=     1 NCel=       1 NClECP=     1 NCelD=      1
         NCelK=      1 NCelE2=     1 NClLst=     1 CellRange=     0.0.
 One-electron integrals computed using PRISM.
 NBasis=    90 RedAO= T EigKep=  1.21D-03  NBF=    90
 NBsUse=    90 1.00D-06 EigRej= -1.00D+00 NBFU=    90
 Precomputing XC quadrature grid using
 IXCGrd= 4 IRadAn=           5 IRanWt=          -1 IRanGd=           0 AccXCQ= 0.00D+00.
 Generated NRdTot=       0 NPtTot=           0 NUsed=           0 NTot=          32
 NSgBfM=    94    94    94    94    94 MxSgAt=    10 MxSgA2=    10.
 Leave Link  302 at Thu Apr  6 11:02:28 2023, MaxMem=  1073741824 cpu:               0.4 elap:               0.1
 (Enter /home/gaussian/g16/l303.exe)
 DipDrv:  MaxL=1.
 Leave Link  303 at Thu Apr  6 11:02:28 2023, MaxMem=  1073741824 cpu:               0.0 elap:               0.0
 (Enter /home/gaussian/g16/l401.exe)
 Initial guess from the checkpoint file:  "C4H6_electrocyclization_IRC_reverse.chk"
 B after Tr=     0.000000   -0.044260    0.000001
         Rot=    1.000000   -0.000000    0.000120   -0.000000 Ang=   0.01 deg.
 Guess basis will be translated and rotated to current coordinates.
 JPrj=2 DoOrth=T DoCkMO=T.
 Generating alternative initial guess.
 ExpMin= 1.03D-01 ExpMax= 4.56D+03 ExpMxC= 6.82D+02 IAcc=3 IRadAn=         5 AccDes= 0.00D+00
 Harris functional with IExCor=  402 and IRadAn=       5 diagonalized for initial guess.
 HarFok:  IExCor=  402 AccDes= 0.00D+00 IRadAn=         5 IDoV= 1 UseB2=F ITyADJ=14
 ICtDFT=  3500011 ScaDFX=  1.000000  1.000000  1.000000  1.000000
 FoFCou: FMM=F IPFlag=           0 FMFlag=      100000 FMFlg1=           0
         NFxFlg=           0 DoJE=T BraDBF=F KetDBF=T FulRan=T
         wScrn=  0.000000 ICntrl=       500 IOpCl=  0 I1Cent=   200000004 NGrid=           0
         NMat0=    1 NMatS0=      1 NMatT0=    0 NMatD0=    1 NMtDS0=    0 NMtDT0=    0
 Symmetry not used in FoFCou.
 Harris En= -156.001386466411    
 Leave Link  401 at Thu Apr  6 11:02:29 2023, MaxMem=  1073741824 cpu:               1.6 elap:               0.2
 (Enter /home/gaussian/g16/l502.exe)
 Keep R1 ints in memory in canonical form, NReq=15734758.
 FoFCou: FMM=F IPFlag=           0 FMFlag=           0 FMFlg1=           0
         NFxFlg=           0 DoJE=F BraDBF=F KetDBF=F FulRan=T
         wScrn=  0.000000 ICntrl=       600 IOpCl=  0 I1Cent=           0 NGrid=           0
         NMat0=    1 NMatS0=   4095 NMatT0=    0 NMatD0=    1 NMtDS0=    0 NMtDT0=    0
 Symmetry not used in FoFCou.
 Two-electron integral symmetry not used.
 Closed shell SCF:
 Using DIIS extrapolation, IDIIS=  1040.
 NGot=  1073741824 LenX=  1065335684 LenY=  1065326407
 Requested convergence on RMS density matrix=1.00D-08 within 128 cycles.
 Requested convergence on MAX density matrix=1.00D-06.
 Requested convergence on             energy=1.00D-06.
 No special actions if energy rises.
 Integral accuracy reduced to 1.0D-05 until final iterations.

 Cycle   1  Pass 0  IDiag  1:
 E= -155.962960571105    
 DIIS: error= 9.61D-04 at cycle   1 NSaved=   1.
 NSaved= 1 IEnMin= 1 EnMin= -155.962960571105     IErMin= 1 ErrMin= 9.61D-04
 ErrMax= 9.61D-04  0.00D+00 EMaxC= 1.00D-01 BMatC= 4.67D-05 BMatP= 4.67D-05
 IDIUse=3 WtCom= 9.90D-01 WtEn= 9.61D-03
 Coeff-Com:  0.100D+01
 Coeff-En:   0.100D+01
 Coeff:      0.100D+01
 Gap=     0.738 Goal=   None    Shift=    0.000
 RMSDP=1.35D-04 MaxDP=1.09D-03              OVMax= 8.84D-03

 Cycle   2  Pass 0  IDiag  1:
 E= -155.963097421107     Delta-E=       -0.000136850002 Rises=F Damp=F
 DIIS: error= 2.44D-04 at cycle   2 NSaved=   2.
 NSaved= 2 IEnMin= 2 EnMin= -155.963097421107     IErMin= 2 ErrMin= 2.44D-04
 ErrMax= 2.44D-04  0.00D+00 EMaxC= 1.00D-01 BMatC= 2.32D-06 BMatP= 4.67D-05
 IDIUse=3 WtCom= 9.98D-01 WtEn= 2.44D-03
 Coeff-Com: -0.254D-01 0.103D+01
 Coeff-En:   0.000D+00 0.100D+01
 Coeff:     -0.253D-01 0.103D+01
 Gap=     0.221 Goal=   None    Shift=    0.000
 RMSDP=4.99D-05 MaxDP=4.42D-04 DE=-1.37D-04 OVMax= 2.47D-03

 Cycle   3  Pass 0  IDiag  1:
 E= -155.963101855828     Delta-E=       -0.000004434721 Rises=F Damp=F
 DIIS: error= 1.68D-04 at cycle   3 NSaved=   3.
 NSaved= 3 IEnMin= 3 EnMin= -155.963101855828     IErMin= 3 ErrMin= 1.68D-04
 ErrMax= 1.68D-04  0.00D+00 EMaxC= 1.00D-01 BMatC= 2.28D-06 BMatP= 2.32D-06
 IDIUse=3 WtCom= 9.98D-01 WtEn= 1.68D-03
 Coeff-Com: -0.506D-01 0.535D+00 0.516D+00
 Coeff-En:   0.000D+00 0.000D+00 0.100D+01
 Coeff:     -0.506D-01 0.534D+00 0.517D+00
 Gap=     0.221 Goal=   None    Shift=    0.000
 RMSDP=1.97D-05 MaxDP=2.72D-04 DE=-4.43D-06 OVMax= 1.01D-03

 Cycle   4  Pass 0  IDiag  1:
 E= -155.963104323138     Delta-E=       -0.000002467310 Rises=F Damp=F
 DIIS: error= 6.18D-05 at cycle   4 NSaved=   4.
 NSaved= 4 IEnMin= 4 EnMin= -155.963104323138     IErMin= 4 ErrMin= 6.18D-05
 ErrMax= 6.18D-05  0.00D+00 EMaxC= 1.00D-01 BMatC= 1.78D-07 BMatP= 2.28D-06
 IDIUse=1 WtCom= 1.00D+00 WtEn= 0.00D+00
 Coeff-Com: -0.147D-01 0.636D-01 0.229D+00 0.722D+00
 Coeff:     -0.147D-01 0.636D-01 0.229D+00 0.722D+00
 Gap=     0.221 Goal=   None    Shift=    0.000
 RMSDP=5.60D-06 MaxDP=5.30D-05 DE=-2.47D-06 OVMax= 3.42D-04

 Initial convergence to 1.0D-05 achieved.  Increase integral accuracy.
 Cycle   5  Pass 1  IDiag  1:
 E= -155.963107186693     Delta-E=       -0.000002863555 Rises=F Damp=F
 DIIS: error= 1.40D-05 at cycle   1 NSaved=   1.
 NSaved= 1 IEnMin= 1 EnMin= -155.963107186693     IErMin= 1 ErrMin= 1.40D-05
 ErrMax= 1.40D-05  0.00D+00 EMaxC= 1.00D-01 BMatC= 2.20D-08 BMatP= 2.20D-08
 IDIUse=1 WtCom= 1.00D+00 WtEn= 0.00D+00
 Coeff-Com:  0.100D+01
 Coeff:      0.100D+01
 Gap=     0.221 Goal=   None    Shift=    0.000
 RMSDP=5.60D-06 MaxDP=5.30D-05 DE=-2.86D-06 OVMax= 1.69D-04

 Cycle   6  Pass 1  IDiag  1:
 E= -155.963107178770     Delta-E=        0.000000007922 Rises=F Damp=F
 DIIS: error= 2.06D-05 at cycle   2 NSaved=   2.
 NSaved= 2 IEnMin= 1 EnMin= -155.963107186693     IErMin= 1 ErrMin= 1.40D-05
 ErrMax= 2.06D-05  0.00D+00 EMaxC= 1.00D-01 BMatC= 3.57D-08 BMatP= 2.20D-08
 IDIUse=1 WtCom= 1.00D+00 WtEn= 0.00D+00
 Coeff-Com:  0.563D+00 0.437D+00
 Coeff:      0.563D+00 0.437D+00
 Gap=     0.221 Goal=   None    Shift=    0.000
 RMSDP=1.90D-06 MaxDP=2.83D-05 DE= 7.92D-09 OVMax= 6.27D-05

 Cycle   7  Pass 1  IDiag  1:
 E= -155.963107215718     Delta-E=       -0.000000036948 Rises=F Damp=F
 DIIS: error= 3.10D-06 at cycle   3 NSaved=   3.
 NSaved= 3 IEnMin= 3 EnMin= -155.963107215718     IErMin= 3 ErrMin= 3.10D-06
 ErrMax= 3.10D-06  0.00D+00 EMaxC= 1.00D-01 BMatC= 4.12D-10 BMatP= 2.20D-08
 IDIUse=1 WtCom= 1.00D+00 WtEn= 0.00D+00
 Coeff-Com:  0.179D+00 0.162D+00 0.659D+00
 Coeff:      0.179D+00 0.162D+00 0.659D+00
 Gap=     0.221 Goal=   None    Shift=    0.000
 RMSDP=3.74D-07 MaxDP=4.06D-06 DE=-3.69D-08 OVMax= 2.20D-05

 Cycle   8  Pass 1  IDiag  1:
 E= -155.963107216182     Delta-E=       -0.000000000464 Rises=F Damp=F
 DIIS: error= 1.72D-06 at cycle   4 NSaved=   4.
 NSaved= 4 IEnMin= 4 EnMin= -155.963107216182     IErMin= 4 ErrMin= 1.72D-06
 ErrMax= 1.72D-06  0.00D+00 EMaxC= 1.00D-01 BMatC= 1.62D-10 BMatP= 4.12D-10
 IDIUse=1 WtCom= 1.00D+00 WtEn= 0.00D+00
 Coeff-Com: -0.344D-01-0.169D-01 0.386D+00 0.666D+00
 Coeff:     -0.344D-01-0.169D-01 0.386D+00 0.666D+00
 Gap=     0.221 Goal=   None    Shift=    0.000
 RMSDP=1.70D-07 MaxDP=2.05D-06 DE=-4.64D-10 OVMax= 8.74D-06

 Cycle   9  Pass 1  IDiag  1:
 E= -155.963107216380     Delta-E=       -0.000000000198 Rises=F Damp=F
 DIIS: error= 1.89D-07 at cycle   5 NSaved=   5.
 NSaved= 5 IEnMin= 5 EnMin= -155.963107216380     IErMin= 5 ErrMin= 1.89D-07
 ErrMax= 1.89D-07  0.00D+00 EMaxC= 1.00D-01 BMatC= 3.28D-12 BMatP= 1.62D-10
 IDIUse=1 WtCom= 1.00D+00 WtEn= 0.00D+00
 Coeff-Com: -0.283D-01-0.216D-01 0.815D-01 0.186D+00 0.783D+00
 Coeff:     -0.283D-01-0.216D-01 0.815D-01 0.186D+00 0.783D+00
 Gap=     0.221 Goal=   None    Shift=    0.000
 RMSDP=4.59D-08 MaxDP=3.84D-07 DE=-1.98D-10 OVMax= 1.84D-06

 Cycle  10  Pass 1  IDiag  1:
 E= -155.963107216387     Delta-E=       -0.000000000007 Rises=F Damp=F
 DIIS: error= 8.55D-08 at cycle   6 NSaved=   6.
 NSaved= 6 IEnMin= 6 EnMin= -155.963107216387     IErMin= 6 ErrMin= 8.55D-08
 ErrMax= 8.55D-08  0.00D+00 EMaxC= 1.00D-01 BMatC= 3.24D-13 BMatP= 3.28D-12
 IDIUse=1 WtCom= 1.00D+00 WtEn= 0.00D+00
 Coeff-Com: -0.976D-02-0.760D-02 0.204D-01 0.463D-01 0.289D+00 0.661D+00
 Coeff:     -0.976D-02-0.760D-02 0.204D-01 0.463D-01 0.289D+00 0.661D+00
 Gap=     0.221 Goal=   None    Shift=    0.000
 RMSDP=1.07D-08 MaxDP=1.25D-07 DE=-7.28D-12 OVMax= 7.10D-07

 Cycle  11  Pass 1  IDiag  1:
 E= -155.963107216387     Delta-E=        0.000000000001 Rises=F Damp=F
 DIIS: error= 9.57D-08 at cycle   7 NSaved=   7.
 NSaved= 7 IEnMin= 6 EnMin= -155.963107216387     IErMin= 6 ErrMin= 8.55D-08
 ErrMax= 9.57D-08  0.00D+00 EMaxC= 1.00D-01 BMatC= 3.69D-13 BMatP= 3.24D-13
 IDIUse=1 WtCom= 1.00D+00 WtEn= 0.00D+00
 Coeff-Com:  0.566D-03 0.357D-03-0.689D-02-0.180D-01-0.387D-02 0.542D+00
 Coeff-Com:  0.486D+00
 Coeff:      0.566D-03 0.357D-03-0.689D-02-0.180D-01-0.387D-02 0.542D+00
 Coeff:      0.486D+00
 Gap=     0.221 Goal=   None    Shift=    0.000
 RMSDP=5.85D-09 MaxDP=7.47D-08 DE= 8.53D-13 OVMax= 3.83D-07

 SCF Done:  E(RB3LYP) =  -155.963107216     A.U. after   11 cycles
            NFock= 11  Conv=0.59D-08     -V/T= 2.0046
 KE= 1.552560340366D+02 PE=-5.806865718338D+02 EE= 1.597810550056D+02
 Leave Link  502 at Thu Apr  6 11:02:30 2023, MaxMem=  1073741824 cpu:              10.8 elap:               1.4
 (Enter /home/gaussian/g16/l801.exe)
 DoSCS=F DFT=T ScalE2(SS,OS)=  1.000000  1.000000
 Range of M.O.s used for correlation:     1    90
 NBasis=    90 NAE=    15 NBE=    15 NFC=     0 NFV=     0
 NROrb=     90 NOA=    15 NOB=    15 NVA=    75 NVB=    75
 Leave Link  801 at Thu Apr  6 11:02:30 2023, MaxMem=  1073741824 cpu:               0.0 elap:               0.0
 (Enter /home/gaussian/g16/l1101.exe)
 Leave Link 1101 at Thu Apr  6 11:02:30 2023, MaxMem=  1073741824 cpu:               0.0 elap:               0.0
 (Enter /home/gaussian/g16/l1102.exe)
 Symmetrizing basis deriv contribution to polar:
 IMax=3 JMax=2 DiffMx= 0.00D+00
 Leave Link 1102 at Thu Apr  6 11:02:30 2023, MaxMem=  1073741824 cpu:               0.1 elap:               0.0
 (Enter /home/gaussian/g16/l1110.exe)
 Leave Link 1110 at Thu Apr  6 11:02:30 2023, MaxMem=  1073741824 cpu:               0.0 elap:               0.0
 (Enter /home/gaussian/g16/l1002.exe)
 Minotr:  Closed shell wavefunction.
 Leave Link 1002 at Thu Apr  6 11:02:30 2023, MaxMem=  1073741824 cpu:               0.0 elap:               0.0
 (Enter /home/gaussian/g16/l701.exe)
 ... and contract with generalized density number  0.
 Compute integral first derivatives.
 R6Disp: Adding Grimme-D3(BJ) dispersion energy 1st derivatives to the gradient.
 Leave Link  701 at Thu Apr  6 11:02:30 2023, MaxMem=  1073741824 cpu:               0.3 elap:               0.1
 (Enter /home/gaussian/g16/l702.exe)
 L702 exits ... SP integral derivatives will be done elsewhere.
 Leave Link  702 at Thu Apr  6 11:02:30 2023, MaxMem=  1073741824 cpu:               0.0 elap:               0.0
 (Enter /home/gaussian/g16/l703.exe)
 Integral derivatives from FoFJK, PRISM(SPDF).
 Compute integral first derivatives, UseDBF=F ICtDFT=           0.
 Calling FoFJK, ICntrl=      2127 FMM=F ISym2X=0 I1Cent= 0 IOpClX= 0 NMat=1 NMatS=1 NMatT=0.
 FoFJK:  IHMeth= 1 ICntrl=    2127 DoSepK=F KAlg= 0 I1Cent=           0 FoldK=F
 IRaf=         0 NMat=       1 IRICut=       1 DoRegI=T DoRafI=F ISym2E= 0 IDoP0=0 IntGTp=1.
 FoFCou: FMM=F IPFlag=           0 FMFlag=      100000 FMFlg1=         800
         NFxFlg=           0 DoJE=F BraDBF=F KetDBF=F FulRan=T
         wScrn=  0.000000 ICntrl=      2127 IOpCl=  0 I1Cent=           0 NGrid=           0
         NMat0=    1 NMatS0=      1 NMatT0=    0 NMatD0=    1 NMtDS0=    0 NMtDT0=    0
 Symmetry not used in FoFCou.
 Leave Link  703 at Thu Apr  6 11:02:31 2023, MaxMem=  1073741824 cpu:               5.5 elap:               0.7
 (Enter /home/gaussian/g16/l716.exe)
 Dipole        = 8.62477704D-07-7.51189464D-02 1.14592816D-05
 Polarizability= 0.00000000D+00 0.00000000D+00 0.00000000D+00
                 0.00000000D+00 0.00000000D+00 0.00000000D+00
 -------------------------------------------------------------------
 Center     Atomic                   Forces (Hartrees/Bohr)
 Number     Number              X              Y              Z
 -------------------------------------------------------------------
      1        6           0.002382068   -0.001004633   -0.000081634
      2        1          -0.000324855    0.000206034    0.000135916
      3        1           0.000392140   -0.000183100   -0.000173872
      4        6           0.000360794    0.000902122    0.000333122
      5        1          -0.000042906    0.000078802    0.000243961
      6        6          -0.000359606    0.000902542   -0.000331837
      7        1           0.000042693    0.000078645   -0.000245264
      8        6          -0.002383180   -0.001003482    0.000082136
      9        1           0.000324730    0.000206527   -0.000136436
     10        1          -0.000391878   -0.000183457    0.000173908
 -------------------------------------------------------------------
 Cartesian Forces:  Max     0.002383180 RMS     0.000739287
 Z-matrix is all fixed cartesians, so copy forces.
 Leave Link  716 at Thu Apr  6 11:02:31 2023, MaxMem=  1073741824 cpu:               0.1 elap:               0.0
 (Enter /home/gaussian/g16/l123.exe)
 IRC-IRC-IRC-IRC-IRC-IRC-IRC-IRC-IRC-IRC-IRC-IRC-IRC-IRC-IRC-IRC-IRC-IRC
 Pt  1 Step number   1 out of a maximum of  20
 Using modified Bulirsch-Stoer corrector integration.
   Using distance weighted interpolants to fit PES.
 PreDWI: IReCr0= 2 IReCr1= 1 IReCr2= 1 IReCr3= 1
 Modified Bulirsch-Stoer Extrapolation Cycles:
    EPS =    0.000010000000000
    Cycle     1 NS=    48
      PEZero:  N= 2 I= 1 D=  1.92D-04 Err=  2.66D-04
    Cycle     2 NS=    64 Truncation Error =  0.000266499
      PEZero:  N= 3 I= 2 D=  1.92D-04 Err=  1.78D-04
      PEZero:  N= 3 I= 1 D=  3.83D-04 Err=  1.51D-08
    Cycle     3 NS=    96 Truncation Error =  0.000000015
 BS completed in    3 cycles and     208 integration steps.
 Maximum DWI energy   std dev =  0.000000009 at pt     2
 Maximum DWI gradient std dev =  0.045797586 at pt     1
 SUMMARY OF CORRECTOR INTEGRATION:
   Predictor End Point Energy =  -155.963107
   Old End Point Energy       =  -155.963107
   Corrected End Point Energy =  -155.963107
   Predictor End-Start Dist.  =     0.073629
   Old End-Start Dist.        =     0.073629
   New End-Start Dist.        =     0.073627
   New End-Old End Dist.      =     0.000462
 CORRECTOR INTEGRATION CONVERGENCE:
   Recorrection delta-x convergence threshold:    0.010000
   Delta-x Convergence Met
 Point Number:   1          Path Number:   1
                    CURRENT STRUCTURE
                Cartesian Coordinates (Ang):                
 ---------------------------------------------------------------------
 Center     Atomic                     Coordinates (Angstroms)
 Number     Number                        X           Y           Z
 ---------------------------------------------------------------------
      1          6                   -1.058551   -0.653093    0.115959
      2          1                   -0.889858   -1.100120    1.086258
      3          1                   -1.862546   -1.130611   -0.450655
      4          6                   -0.680411    0.712561   -0.081364
      5          1                   -1.338394    1.522538   -0.386282
      6          6                    0.680401    0.712567    0.081359
      7          1                    1.338373    1.522547    0.386296
      8          6                    1.058560   -0.653082   -0.115957
      9          1                    0.889877   -1.100121   -1.086253
     10          1                    1.862556   -1.130586    0.450668
 ---------------------------------------------------------------------
   CHANGE IN THE REACTION COORDINATE =    0.07363
   NET REACTION COORDINATE UP TO THIS POINT =    0.07363
  # OF POINTS ALONG THE PATH =   1
  # OF STEPS =   1

 Calculating another point on the path.
 Point Number  2 in REVERSE path direction.
 Using LQA Reaction Path Following.
   LQA: T_Est iteration completed in    3 iterations.
 IRC-IRC-IRC-IRC-IRC-IRC-IRC-IRC-IRC-IRC-IRC-IRC-IRC-IRC-IRC-IRC-IRC-IRC
 Leave Link  123 at Thu Apr  6 11:02:31 2023, MaxMem=  1073741824 cpu:               0.1 elap:               0.0
 (Enter /home/gaussian/g16/l202.exe)
                          Input orientation:                          
 ---------------------------------------------------------------------
 Center     Atomic      Atomic             Coordinates (Angstroms)
 Number     Number       Type             X           Y           Z
 ---------------------------------------------------------------------
      1          6           0       -1.053350   -0.655249    0.115645
      2          1           0       -0.897835   -1.095368    1.091757
      3          1           0       -1.852657   -1.135637   -0.455591
      4          6           0       -0.679520    0.714550   -0.080616
      5          1           0       -1.339755    1.524789   -0.379966
      6          6           0        0.679511    0.714557    0.080612
      7          1           0        1.339736    1.524801    0.379971
      8          6           0        1.053358   -0.655238   -0.115643
      9          1           0        0.897852   -1.095366   -1.091753
     10          1           0        1.852667   -1.135613    0.455601
 ---------------------------------------------------------------------
                    Distance matrix (angstroms):
                    1          2          3          4          5
     1  C    0.000000
     2  H    1.081982   0.000000
     3  H    1.093606   1.818679   0.000000
     4  C    1.433393   2.167470   2.222622   0.000000
     5  H    2.253934   3.037513   2.710470   1.087202   0.000000
     6  C    2.209163   2.605046   3.181604   1.368562   2.223971
     7  H    3.247976   3.518331   4.238805   2.223970   2.785171
     8  C    2.119366   2.336383   2.965007   2.209165   3.247980
     9  H    2.336387   2.827049   2.823406   2.605052   3.518343
    10  H    2.965005   2.823398   3.815717   3.181604   4.238805
                    6          7          8          9         10
     6  C    0.000000
     7  H    1.087202   0.000000
     8  C    1.433393   2.253933   0.000000
     9  H    2.167472   3.037517   1.081982   0.000000
    10  H    2.222620   2.710465   1.093606   1.818679   0.000000
 Symmetry turned off by external request.
 Stoichiometry    C4H6
 Framework group  C1[X(C4H6)]
 Deg. of freedom    24
 Full point group                 C1      NOp   1
 Rotational constants (GHZ):          14.1027117           9.4531981           6.1518439
 Leave Link  202 at Thu Apr  6 11:02:31 2023, MaxMem=  1073741824 cpu:               0.0 elap:               0.0
 (Enter /home/gaussian/g16/l301.exe)
 Standard basis: 6-311G(d) (5D, 7F)
 Ernie: Thresh=  0.10000D-02 Tol=  0.10000D-05 Strict=F.
    90 basis functions,   158 primitive gaussians,    94 cartesian basis functions
    15 alpha electrons       15 beta electrons
       nuclear repulsion energy       109.7223083704 Hartrees.
 IExCor=  402 DFT=T Ex+Corr=B3LYP ExCW=0 ScaHFX=  0.200000
 ScaDFX=  0.800000  0.720000  1.000000  0.810000 ScalE2=  1.000000  1.000000
 IRadAn=      5 IRanWt=     -1 IRanGd=            0 ICorTp=0 IEmpDi=141
 NAtoms=   10 NActive=   10 NUniq=   10 SFac= 1.00D+00 NAtFMM=   60 NAOKFM=F Big=F
 Integral buffers will be    131072 words long.
 Raffenetti 2 integral format.
 Two-electron integral symmetry is turned off.
 R6Disp:  Grimme-D3(BJ) Dispersion energy=       -0.0115703377 Hartrees.
 Nuclear repulsion after empirical dispersion term =      109.7107380327 Hartrees.
 Leave Link  301 at Thu Apr  6 11:02:31 2023, MaxMem=  1073741824 cpu:               0.1 elap:               0.0
 (Enter /home/gaussian/g16/l302.exe)
 NPDir=0 NMtPBC=     1 NCelOv=     1 NCel=       1 NClECP=     1 NCelD=      1
         NCelK=      1 NCelE2=     1 NClLst=     1 CellRange=     0.0.
 One-electron integrals computed using PRISM.
 NBasis=    90 RedAO= T EigKep=  1.20D-03  NBF=    90
 NBsUse=    90 1.00D-06 EigRej= -1.00D+00 NBFU=    90
 Precomputing XC quadrature grid using
 IXCGrd= 4 IRadAn=           5 IRanWt=          -1 IRanGd=           0 AccXCQ= 0.00D+00.
 Generated NRdTot=       0 NPtTot=           0 NUsed=           0 NTot=          32
 NSgBfM=    94    94    94    94    94 MxSgAt=    10 MxSgA2=    10.
 Leave Link  302 at Thu Apr  6 11:02:31 2023, MaxMem=  1073741824 cpu:               0.5 elap:               0.1
 (Enter /home/gaussian/g16/l303.exe)
 DipDrv:  MaxL=1.
 Leave Link  303 at Thu Apr  6 11:02:31 2023, MaxMem=  1073741824 cpu:               0.1 elap:               0.0
 (Enter /home/gaussian/g16/l401.exe)
 Initial guess from the checkpoint file:  "C4H6_electrocyclization_IRC_reverse.chk"
 B after Tr=     0.000000    0.000124   -0.000001
         Rot=    1.000000    0.000000    0.000124   -0.000000 Ang=   0.01 deg.
 Guess basis will be translated and rotated to current coordinates.
 JPrj=2 DoOrth=T DoCkMO=T.
 Generating alternative initial guess.
 ExpMin= 1.03D-01 ExpMax= 4.56D+03 ExpMxC= 6.82D+02 IAcc=3 IRadAn=         5 AccDes= 0.00D+00
 Harris functional with IExCor=  402 and IRadAn=       5 diagonalized for initial guess.
 HarFok:  IExCor=  402 AccDes= 0.00D+00 IRadAn=         5 IDoV= 1 UseB2=F ITyADJ=14
 ICtDFT=  3500011 ScaDFX=  1.000000  1.000000  1.000000  1.000000
 FoFCou: FMM=F IPFlag=           0 FMFlag=      100000 FMFlg1=           0
         NFxFlg=           0 DoJE=T BraDBF=F KetDBF=T FulRan=T
         wScrn=  0.000000 ICntrl=       500 IOpCl=  0 I1Cent=   200000004 NGrid=           0
         NMat0=    1 NMatS0=      1 NMatT0=    0 NMatD0=    1 NMtDS0=    0 NMtDT0=    0
 Symmetry not used in FoFCou.
 Harris En= -156.001311460864    
 Leave Link  401 at Thu Apr  6 11:02:32 2023, MaxMem=  1073741824 cpu:               1.9 elap:               0.3
 (Enter /home/gaussian/g16/l502.exe)
 Keep R1 ints in memory in canonical form, NReq=15734758.
 FoFCou: FMM=F IPFlag=           0 FMFlag=           0 FMFlg1=           0
         NFxFlg=           0 DoJE=F BraDBF=F KetDBF=F FulRan=T
         wScrn=  0.000000 ICntrl=       600 IOpCl=  0 I1Cent=           0 NGrid=           0
         NMat0=    1 NMatS0=   4095 NMatT0=    0 NMatD0=    1 NMtDS0=    0 NMtDT0=    0
 Symmetry not used in FoFCou.
 Two-electron integral symmetry not used.
 Closed shell SCF:
 Using DIIS extrapolation, IDIIS=  1040.
 NGot=  1073741824 LenX=  1065335684 LenY=  1065326407
 Requested convergence on RMS density matrix=1.00D-08 within 128 cycles.
 Requested convergence on MAX density matrix=1.00D-06.
 Requested convergence on             energy=1.00D-06.
 No special actions if energy rises.
 Integral accuracy reduced to 1.0D-05 until final iterations.

 Cycle   1  Pass 0  IDiag  1:
 E= -155.963124305323    
 DIIS: error= 9.56D-04 at cycle   1 NSaved=   1.
 NSaved= 1 IEnMin= 1 EnMin= -155.963124305323     IErMin= 1 ErrMin= 9.56D-04
 ErrMax= 9.56D-04  0.00D+00 EMaxC= 1.00D-01 BMatC= 4.63D-05 BMatP= 4.63D-05
 IDIUse=3 WtCom= 9.90D-01 WtEn= 9.56D-03
 Coeff-Com:  0.100D+01
 Coeff-En:   0.100D+01
 Coeff:      0.100D+01
 Gap=     0.738 Goal=   None    Shift=    0.000
 RMSDP=1.35D-04 MaxDP=1.06D-03              OVMax= 8.71D-03

 Cycle   2  Pass 0  IDiag  1:
 E= -155.963260008090     Delta-E=       -0.000135702767 Rises=F Damp=F
 DIIS: error= 2.33D-04 at cycle   2 NSaved=   2.
 NSaved= 2 IEnMin= 2 EnMin= -155.963260008090     IErMin= 2 ErrMin= 2.33D-04
 ErrMax= 2.33D-04  0.00D+00 EMaxC= 1.00D-01 BMatC= 2.14D-06 BMatP= 4.63D-05
 IDIUse=3 WtCom= 9.98D-01 WtEn= 2.33D-03
 Coeff-Com: -0.313D-01 0.103D+01
 Coeff-En:   0.000D+00 0.100D+01
 Coeff:     -0.312D-01 0.103D+01
 Gap=     0.223 Goal=   None    Shift=    0.000
 RMSDP=4.86D-05 MaxDP=4.32D-04 DE=-1.36D-04 OVMax= 2.40D-03

 Cycle   3  Pass 0  IDiag  1:
 E= -155.963264567327     Delta-E=       -0.000004559237 Rises=F Damp=F
 DIIS: error= 1.55D-04 at cycle   3 NSaved=   3.
 NSaved= 3 IEnMin= 3 EnMin= -155.963264567327     IErMin= 3 ErrMin= 1.55D-04
 ErrMax= 1.55D-04  0.00D+00 EMaxC= 1.00D-01 BMatC= 1.95D-06 BMatP= 2.14D-06
 IDIUse=3 WtCom= 9.98D-01 WtEn= 1.55D-03
 Coeff-Com: -0.503D-01 0.525D+00 0.525D+00
 Coeff-En:   0.000D+00 0.000D+00 0.100D+01
 Coeff:     -0.502D-01 0.524D+00 0.526D+00
 Gap=     0.223 Goal=   None    Shift=    0.000
 RMSDP=1.86D-05 MaxDP=2.56D-04 DE=-4.56D-06 OVMax= 9.30D-04

 Cycle   4  Pass 0  IDiag  1:
 E= -155.963266678577     Delta-E=       -0.000002111250 Rises=F Damp=F
 DIIS: error= 5.82D-05 at cycle   4 NSaved=   4.
 NSaved= 4 IEnMin= 4 EnMin= -155.963266678577     IErMin= 4 ErrMin= 5.82D-05
 ErrMax= 5.82D-05  0.00D+00 EMaxC= 1.00D-01 BMatC= 1.63D-07 BMatP= 1.95D-06
 IDIUse=1 WtCom= 1.00D+00 WtEn= 0.00D+00
 Coeff-Com: -0.137D-01 0.544D-01 0.232D+00 0.727D+00
 Coeff:     -0.137D-01 0.544D-01 0.232D+00 0.727D+00
 Gap=     0.223 Goal=   None    Shift=    0.000
 RMSDP=5.37D-06 MaxDP=5.34D-05 DE=-2.11D-06 OVMax= 3.28D-04

 Initial convergence to 1.0D-05 achieved.  Increase integral accuracy.
 Cycle   5  Pass 1  IDiag  1:
 E= -155.963269632954     Delta-E=       -0.000002954377 Rises=F Damp=F
 DIIS: error= 1.34D-05 at cycle   1 NSaved=   1.
 NSaved= 1 IEnMin= 1 EnMin= -155.963269632954     IErMin= 1 ErrMin= 1.34D-05
 ErrMax= 1.34D-05  0.00D+00 EMaxC= 1.00D-01 BMatC= 1.89D-08 BMatP= 1.89D-08
 IDIUse=1 WtCom= 1.00D+00 WtEn= 0.00D+00
 Coeff-Com:  0.100D+01
 Coeff:      0.100D+01
 Gap=     0.223 Goal=   None    Shift=    0.000
 RMSDP=5.37D-06 MaxDP=5.34D-05 DE=-2.95D-06 OVMax= 1.58D-04

 Cycle   6  Pass 1  IDiag  1:
 E= -155.963269626760     Delta-E=        0.000000006194 Rises=F Damp=F
 DIIS: error= 1.94D-05 at cycle   2 NSaved=   2.
 NSaved= 2 IEnMin= 1 EnMin= -155.963269632954     IErMin= 1 ErrMin= 1.34D-05
 ErrMax= 1.94D-05  0.00D+00 EMaxC= 1.00D-01 BMatC= 3.04D-08 BMatP= 1.89D-08
 IDIUse=1 WtCom= 1.00D+00 WtEn= 0.00D+00
 Coeff-Com:  0.562D+00 0.438D+00
 Coeff:      0.562D+00 0.438D+00
 Gap=     0.223 Goal=   None    Shift=    0.000
 RMSDP=1.75D-06 MaxDP=2.62D-05 DE= 6.19D-09 OVMax= 5.83D-05

 Cycle   7  Pass 1  IDiag  1:
 E= -155.963269658105     Delta-E=       -0.000000031345 Rises=F Damp=F
 DIIS: error= 2.87D-06 at cycle   3 NSaved=   3.
 NSaved= 3 IEnMin= 3 EnMin= -155.963269658105     IErMin= 3 ErrMin= 2.87D-06
 ErrMax= 2.87D-06  0.00D+00 EMaxC= 1.00D-01 BMatC= 3.37D-10 BMatP= 1.89D-08
 IDIUse=1 WtCom= 1.00D+00 WtEn= 0.00D+00
 Coeff-Com:  0.163D+00 0.153D+00 0.684D+00
 Coeff:      0.163D+00 0.153D+00 0.684D+00
 Gap=     0.223 Goal=   None    Shift=    0.000
 RMSDP=3.53D-07 MaxDP=3.58D-06 DE=-3.13D-08 OVMax= 2.05D-05

 Cycle   8  Pass 1  IDiag  1:
 E= -155.963269658491     Delta-E=       -0.000000000385 Rises=F Damp=F
 DIIS: error= 1.56D-06 at cycle   4 NSaved=   4.
 NSaved= 4 IEnMin= 4 EnMin= -155.963269658491     IErMin= 4 ErrMin= 1.56D-06
 ErrMax= 1.56D-06  0.00D+00 EMaxC= 1.00D-01 BMatC= 1.39D-10 BMatP= 3.37D-10
 IDIUse=1 WtCom= 1.00D+00 WtEn= 0.00D+00
 Coeff-Com: -0.278D-01-0.104D-01 0.395D+00 0.644D+00
 Coeff:     -0.278D-01-0.104D-01 0.395D+00 0.644D+00
 Gap=     0.223 Goal=   None    Shift=    0.000
 RMSDP=1.56D-07 MaxDP=1.92D-06 DE=-3.85D-10 OVMax= 7.77D-06

 Cycle   9  Pass 1  IDiag  1:
 E= -155.963269658659     Delta-E=       -0.000000000168 Rises=F Damp=F
 DIIS: error= 1.86D-07 at cycle   5 NSaved=   5.
 NSaved= 5 IEnMin= 5 EnMin= -155.963269658659     IErMin= 5 ErrMin= 1.86D-07
 ErrMax= 1.86D-07  0.00D+00 EMaxC= 1.00D-01 BMatC= 3.28D-12 BMatP= 1.39D-10
 IDIUse=1 WtCom= 1.00D+00 WtEn= 0.00D+00
 Coeff-Com: -0.271D-01-0.208D-01 0.802D-01 0.187D+00 0.780D+00
 Coeff:     -0.271D-01-0.208D-01 0.802D-01 0.187D+00 0.780D+00
 Gap=     0.223 Goal=   None    Shift=    0.000
 RMSDP=4.48D-08 MaxDP=3.76D-07 DE=-1.68D-10 OVMax= 1.87D-06

 Cycle  10  Pass 1  IDiag  1:
 E= -155.963269658665     Delta-E=       -0.000000000007 Rises=F Damp=F
 DIIS: error= 6.84D-08 at cycle   6 NSaved=   6.
 NSaved= 6 IEnMin= 6 EnMin= -155.963269658665     IErMin= 6 ErrMin= 6.84D-08
 ErrMax= 6.84D-08  0.00D+00 EMaxC= 1.00D-01 BMatC= 2.26D-13 BMatP= 3.28D-12
 IDIUse=1 WtCom= 1.00D+00 WtEn= 0.00D+00
 Coeff-Com: -0.764D-02-0.602D-02 0.141D-01 0.331D-01 0.233D+00 0.733D+00
 Coeff:     -0.764D-02-0.602D-02 0.141D-01 0.331D-01 0.233D+00 0.733D+00
 Gap=     0.223 Goal=   None    Shift=    0.000
 RMSDP=1.00D-08 MaxDP=1.15D-07 DE=-6.59D-12 OVMax= 6.35D-07

 Cycle  11  Pass 1  IDiag  1:
 E= -155.963269658665     Delta-E=        0.000000000001 Rises=F Damp=F
 DIIS: error= 9.29D-08 at cycle   7 NSaved=   7.
 NSaved= 7 IEnMin= 6 EnMin= -155.963269658665     IErMin= 6 ErrMin= 6.84D-08
 ErrMax= 9.29D-08  0.00D+00 EMaxC= 1.00D-01 BMatC= 3.52D-13 BMatP= 2.26D-13
 IDIUse=1 WtCom= 1.00D+00 WtEn= 0.00D+00
 Coeff-Com:  0.500D-03 0.286D-03-0.747D-02-0.192D-01-0.602D-02 0.590D+00
 Coeff-Com:  0.441D+00
 Coeff:      0.500D-03 0.286D-03-0.747D-02-0.192D-01-0.602D-02 0.590D+00
 Coeff:      0.441D+00
 Gap=     0.223 Goal=   None    Shift=    0.000
 RMSDP=5.58D-09 MaxDP=7.03D-08 DE= 5.68D-13 OVMax= 3.70D-07

 SCF Done:  E(RB3LYP) =  -155.963269659     A.U. after   11 cycles
            NFock= 11  Conv=0.56D-08     -V/T= 2.0046
 KE= 1.552495736708D+02 PE=-5.807317714172D+02 EE= 1.598081900550D+02
 Leave Link  502 at Thu Apr  6 11:02:33 2023, MaxMem=  1073741824 cpu:              12.5 elap:               1.6
 (Enter /home/gaussian/g16/l801.exe)
 DoSCS=F DFT=T ScalE2(SS,OS)=  1.000000  1.000000
 Range of M.O.s used for correlation:     1    90
 NBasis=    90 NAE=    15 NBE=    15 NFC=     0 NFV=     0
 NROrb=     90 NOA=    15 NOB=    15 NVA=    75 NVB=    75
 Leave Link  801 at Thu Apr  6 11:02:33 2023, MaxMem=  1073741824 cpu:               0.0 elap:               0.0
 (Enter /home/gaussian/g16/l1101.exe)
 Leave Link 1101 at Thu Apr  6 11:02:33 2023, MaxMem=  1073741824 cpu:               0.0 elap:               0.0
 (Enter /home/gaussian/g16/l1102.exe)
 Symmetrizing basis deriv contribution to polar:
 IMax=3 JMax=2 DiffMx= 0.00D+00
 Leave Link 1102 at Thu Apr  6 11:02:33 2023, MaxMem=  1073741824 cpu:               0.1 elap:               0.0
 (Enter /home/gaussian/g16/l1110.exe)
 Leave Link 1110 at Thu Apr  6 11:02:33 2023, MaxMem=  1073741824 cpu:               0.0 elap:               0.0
 (Enter /home/gaussian/g16/l1002.exe)
 Minotr:  Closed shell wavefunction.
 Leave Link 1002 at Thu Apr  6 11:02:33 2023, MaxMem=  1073741824 cpu:               0.1 elap:               0.0
 (Enter /home/gaussian/g16/l701.exe)
 ... and contract with generalized density number  0.
 Compute integral first derivatives.
 R6Disp: Adding Grimme-D3(BJ) dispersion energy 1st derivatives to the gradient.
 Leave Link  701 at Thu Apr  6 11:02:33 2023, MaxMem=  1073741824 cpu:               0.4 elap:               0.1
 (Enter /home/gaussian/g16/l702.exe)
 L702 exits ... SP integral derivatives will be done elsewhere.
 Leave Link  702 at Thu Apr  6 11:02:34 2023, MaxMem=  1073741824 cpu:               0.1 elap:               0.0
 (Enter /home/gaussian/g16/l703.exe)
 Integral derivatives from FoFJK, PRISM(SPDF).
 Compute integral first derivatives, UseDBF=F ICtDFT=           0.
 Calling FoFJK, ICntrl=      2127 FMM=F ISym2X=0 I1Cent= 0 IOpClX= 0 NMat=1 NMatS=1 NMatT=0.
 FoFJK:  IHMeth= 1 ICntrl=    2127 DoSepK=F KAlg= 0 I1Cent=           0 FoldK=F
 IRaf=         0 NMat=       1 IRICut=       1 DoRegI=T DoRafI=F ISym2E= 0 IDoP0=0 IntGTp=1.
 FoFCou: FMM=F IPFlag=           0 FMFlag=      100000 FMFlg1=         800
         NFxFlg=           0 DoJE=F BraDBF=F KetDBF=F FulRan=T
         wScrn=  0.000000 ICntrl=      2127 IOpCl=  0 I1Cent=           0 NGrid=           0
         NMat0=    1 NMatS0=      1 NMatT0=    0 NMatD0=    1 NMtDS0=    0 NMtDT0=    0
 Symmetry not used in FoFCou.
 Leave Link  703 at Thu Apr  6 11:02:34 2023, MaxMem=  1073741824 cpu:               5.9 elap:               0.8
 (Enter /home/gaussian/g16/l716.exe)
 Dipole        = 8.18022988D-07-7.33767892D-02 4.26328067D-06
 Polarizability= 0.00000000D+00 0.00000000D+00 0.00000000D+00
                 0.00000000D+00 0.00000000D+00 0.00000000D+00
 -------------------------------------------------------------------
 Center     Atomic                   Forces (Hartrees/Bohr)
 Number     Number              X              Y              Z
 -------------------------------------------------------------------
      1        6           0.004771354   -0.001984797   -0.000166753
      2        1          -0.000644567    0.000406660    0.000260260
      3        1           0.000781055   -0.000361183   -0.000343557
      4        6           0.000724811    0.001785667    0.000662327
      5        1          -0.000086452    0.000153344    0.000492384
      6        6          -0.000724457    0.001786036   -0.000661890
[...]
 DIIS: error= 5.47D-08 at cycle   6 NSaved=   6.
 NSaved= 6 IEnMin= 6 EnMin= -156.017266788734     IErMin= 6 ErrMin= 5.47D-08
 ErrMax= 5.47D-08  0.00D+00 EMaxC= 1.00D-01 BMatC= 1.30D-13 BMatP= 1.55D-12
 IDIUse=1 WtCom= 1.00D+00 WtEn= 0.00D+00
 Coeff-Com: -0.285D-02-0.689D-03 0.240D-01 0.146D+00 0.303D+00 0.530D+00
 Coeff:     -0.285D-02-0.689D-03 0.240D-01 0.146D+00 0.303D+00 0.530D+00
 Gap=     0.268 Goal=   None    Shift=    0.000
 RMSDP=3.77D-09 MaxDP=7.41D-08 DE=-1.02D-12 OVMax= 1.84D-07

 SCF Done:  E(RB3LYP) =  -156.017266789     A.U. after    9 cycles
            NFock=  9  Conv=0.38D-08     -V/T= 2.0045
 KE= 1.553157028045D+02 PE=-5.876398243795D+02 EE= 1.632264841718D+02
 Leave Link  502 at Thu Apr  6 11:07:52 2023, MaxMem=  1073741824 cpu:               9.1 elap:               1.2
 (Enter /home/gaussian/g16/l801.exe)
 DoSCS=F DFT=T ScalE2(SS,OS)=  1.000000  1.000000
 Range of M.O.s used for correlation:     1    90
 NBasis=    90 NAE=    15 NBE=    15 NFC=     0 NFV=     0
 NROrb=     90 NOA=    15 NOB=    15 NVA=    75 NVB=    75

 **** Warning!!: The largest alpha MO coefficient is  0.13249237D+02

 Leave Link  801 at Thu Apr  6 11:07:52 2023, MaxMem=  1073741824 cpu:               0.0 elap:               0.0
 (Enter /home/gaussian/g16/l1101.exe)
 Leave Link 1101 at Thu Apr  6 11:07:52 2023, MaxMem=  1073741824 cpu:               0.0 elap:               0.0
 (Enter /home/gaussian/g16/l1102.exe)
 Symmetrizing basis deriv contribution to polar:
 IMax=3 JMax=2 DiffMx= 0.00D+00
 Leave Link 1102 at Thu Apr  6 11:07:52 2023, MaxMem=  1073741824 cpu:               0.1 elap:               0.0
 (Enter /home/gaussian/g16/l1110.exe)
 Leave Link 1110 at Thu Apr  6 11:07:52 2023, MaxMem=  1073741824 cpu:               0.0 elap:               0.0
 (Enter /home/gaussian/g16/l1002.exe)
 Minotr:  Closed shell wavefunction.
 Leave Link 1002 at Thu Apr  6 11:07:52 2023, MaxMem=  1073741824 cpu:               0.0 elap:               0.0
 (Enter /home/gaussian/g16/l701.exe)
 ... and contract with generalized density number  0.
 Compute integral first derivatives.
 R6Disp: Adding Grimme-D3(BJ) dispersion energy 1st derivatives to the gradient.
 Leave Link  701 at Thu Apr  6 11:07:52 2023, MaxMem=  1073741824 cpu:               0.3 elap:               0.1
 (Enter /home/gaussian/g16/l702.exe)
 L702 exits ... SP integral derivatives will be done elsewhere.
 Leave Link  702 at Thu Apr  6 11:07:52 2023, MaxMem=  1073741824 cpu:               0.0 elap:               0.0
 (Enter /home/gaussian/g16/l703.exe)
 Integral derivatives from FoFJK, PRISM(SPDF).
 Compute integral first derivatives, UseDBF=F ICtDFT=           0.
 Calling FoFJK, ICntrl=      2127 FMM=F ISym2X=0 I1Cent= 0 IOpClX= 0 NMat=1 NMatS=1 NMatT=0.
 FoFJK:  IHMeth= 1 ICntrl=    2127 DoSepK=F KAlg= 0 I1Cent=           0 FoldK=F
 IRaf=         0 NMat=       1 IRICut=       1 DoRegI=T DoRafI=F ISym2E= 0 IDoP0=0 IntGTp=1.
 FoFCou: FMM=F IPFlag=           0 FMFlag=      100000 FMFlg1=         800
         NFxFlg=           0 DoJE=F BraDBF=F KetDBF=F FulRan=T
         wScrn=  0.000000 ICntrl=      2127 IOpCl=  0 I1Cent=           0 NGrid=           0
         NMat0=    1 NMatS0=      1 NMatT0=    0 NMatD0=    1 NMtDS0=    0 NMtDT0=    0
 Symmetry not used in FoFCou.
 Leave Link  703 at Thu Apr  6 11:07:53 2023, MaxMem=  1073741824 cpu:               5.6 elap:               0.7
 (Enter /home/gaussian/g16/l716.exe)
 Dipole        = 1.17484547D-07-4.79077113D-02 9.60810851D-08
 Polarizability= 0.00000000D+00 0.00000000D+00 0.00000000D+00
                 0.00000000D+00 0.00000000D+00 0.00000000D+00
 -------------------------------------------------------------------
 Center     Atomic                   Forces (Hartrees/Bohr)
 Number     Number              X              Y              Z
 -------------------------------------------------------------------
      1        6          -0.000032047   -0.000023793   -0.000115330
      2        1          -0.000016086   -0.000020942   -0.000070450
      3        1           0.000039999    0.000050004   -0.000013902
      4        6           0.000034429    0.000002902    0.000256863
      5        1           0.000010881   -0.000008158    0.000049313
      6        6          -0.000034476    0.000002911   -0.000256861
      7        1          -0.000010850   -0.000008139   -0.000049314
      8        6           0.000032044   -0.000023849    0.000115330
      9        1           0.000016096   -0.000020940    0.000070441
     10        1          -0.000039989    0.000050004    0.000013909
 -------------------------------------------------------------------
 Cartesian Forces:  Max     0.000256863 RMS     0.000079431
 Z-matrix is all fixed cartesians, so copy forces.
 Leave Link  716 at Thu Apr  6 11:07:53 2023, MaxMem=  1073741824 cpu:               0.0 elap:               0.0
 (Enter /home/gaussian/g16/l123.exe)
 IRC-IRC-IRC-IRC-IRC-IRC-IRC-IRC-IRC-IRC-IRC-IRC-IRC-IRC-IRC-IRC-IRC-IRC
 Pt 61 Step number   1 out of a maximum of  20
 Using modified Bulirsch-Stoer corrector integration.
   Using distance weighted interpolants to fit PES.
 PreDWI: IReCr0= 2 IReCr1= 1 IReCr2= 1 IReCr3= 1
 Modified Bulirsch-Stoer Extrapolation Cycles:
    EPS =    0.000010000000000
    Cycle     1 NS=    48
      PEZero:  N= 2 I= 1 D=  3.83D-04 Err=  6.38D-07
    Cycle     2 NS=    64 Truncation Error =  0.000000638
 BS completed in    2 cycles and     112 integration steps.
 Maximum DWI energy   std dev =  0.000000011 at pt    43
 Maximum DWI gradient std dev =  0.074098139 at pt    42
 SUMMARY OF CORRECTOR INTEGRATION:
   Predictor End Point Energy =  -156.017267
   Old End Point Energy       =  -156.017267
   Corrected End Point Energy =  -156.017267
   Predictor End-Start Dist.  =     0.073628
   Old End-Start Dist.        =     0.073628
   New End-Start Dist.        =     0.073628
   New End-Old End Dist.      =     0.000279
 CORRECTOR INTEGRATION CONVERGENCE:
   Recorrection delta-x convergence threshold:    0.010000
   Delta-x Convergence Met
 Point Number:  61          Path Number:   1
                    CURRENT STRUCTURE
                Cartesian Coordinates (Ang):                
 ---------------------------------------------------------------------
 Center     Atomic                     Coordinates (Angstroms)
 Number     Number                        X           Y           Z
 ---------------------------------------------------------------------
      1          6                   -0.784560   -0.725354    0.050953
      2          1                   -1.183513   -1.164765    0.970333
      3          1                   -1.302462   -1.173988   -0.802270
      4          6                   -0.667592    0.789297    0.039354
      5          1                   -1.412760    1.577267    0.082766
      6          6                    0.667584    0.789305   -0.039357
      7          1                    1.412743    1.577282   -0.082771
      8          6                    0.784568   -0.725345   -0.050951
      9          1                    1.183526   -1.164756   -0.970329
     10          1                    1.302475   -1.173970    0.802274
 ---------------------------------------------------------------------
   CHANGE IN THE REACTION COORDINATE =    0.07363
   NET REACTION COORDINATE UP TO THIS POINT =    4.48981
  # OF POINTS ALONG THE PATH =  61
  # OF STEPS =   1

 Calculating another point on the path.
 Point Number 62 in REVERSE path direction.
 Using LQA Reaction Path Following.
   LQA: T_Est iteration completed in    2 iterations.
 PES minimum detected within a second-order step.
 Calculation of REVERSE path complete.
 Reaction path calculation complete.
 
 Energies reported relative to the TS energy of        -155.963053
 --------------------------------------------------------------------------
    Summary of reaction path following
 --------------------------------------------------------------------------
                        Energy    RxCoord
   1                   -0.05421  -4.48981
   2                   -0.05419  -4.41618
   3                   -0.05414  -4.34256
   4                   -0.05408  -4.26894
   5                   -0.05399  -4.19533
   6                   -0.05387  -4.12171
   7                   -0.05374  -4.04809
   8                   -0.05358  -3.97448
   9                   -0.05340  -3.90086
  10                   -0.05320  -3.82725
  11                   -0.05297  -3.75365
  12                   -0.05272  -3.68006
  13                   -0.05243  -3.60651
  14                   -0.05212  -3.53299
  15                   -0.05176  -3.45949
  16                   -0.05134  -3.38598
  17                   -0.05085  -3.31244
  18                   -0.05027  -3.23887
  19                   -0.04962  -3.16529
  20                   -0.04887  -3.09169
  21                   -0.04804  -3.01809
  22                   -0.04712  -2.94448
  23                   -0.04613  -2.87087
  24                   -0.04505  -2.79726
  25                   -0.04390  -2.72365
  26                   -0.04268  -2.65004
  27                   -0.04141  -2.57642
  28                   -0.04007  -2.50281
  29                   -0.03868  -2.42920
  30                   -0.03725  -2.35559
  31                   -0.03578  -2.28197
  32                   -0.03427  -2.20836
  33                   -0.03273  -2.13475
  34                   -0.03117  -2.06113
  35                   -0.02959  -1.98752
  36                   -0.02799  -1.91391
  37                   -0.02638  -1.84030
  38                   -0.02477  -1.76668
  39                   -0.02317  -1.69307
  40                   -0.02157  -1.61946
  41                   -0.01998  -1.54585
  42                   -0.01842  -1.47223
  43                   -0.01688  -1.39862
  44                   -0.01537  -1.32501
  45                   -0.01390  -1.25140
  46                   -0.01248  -1.17778
  47                   -0.01110  -1.10417
  48                   -0.00978  -1.03056
  49                   -0.00853  -0.95695
  50                   -0.00734  -0.88333
  51                   -0.00623  -0.80972
  52                   -0.00519  -0.73611
  53                   -0.00424  -0.66250
  54                   -0.00337  -0.58889
  55                   -0.00260  -0.51528
  56                   -0.00192  -0.44166
  57                   -0.00134  -0.36805
  58                   -0.00086  -0.29444
  59                   -0.00049  -0.22084
  60                   -0.00022  -0.14723
  61                   -0.00005  -0.07363
  62                    0.00000   0.00000
 --------------------------------------------------------------------------
 
 Total number of points:                   61
 Total number of gradient calculations:    62
 Total number of Hessian calculations:     16
 IRC-IRC-IRC-IRC-IRC-IRC-IRC-IRC-IRC-IRC-IRC-IRC-IRC-IRC-IRC-IRC-IRC-IRC
 Leave Link  123 at Thu Apr  6 11:07:53 2023, MaxMem=  1073741824 cpu:               0.1 elap:               0.1
 (Enter /home/gaussian/g16/l202.exe)
                          Input orientation:                          
 ---------------------------------------------------------------------
 Center     Atomic      Atomic             Coordinates (Angstroms)
 Number     Number       Type             X           Y           Z
 ---------------------------------------------------------------------
      1          6           0       -0.784562   -0.725355    0.050951
      2          1           0       -1.183534   -1.164793    0.970381
      3          1           0       -1.302492   -1.174022   -0.802313
      4          6           0       -0.667605    0.789303    0.039355
      5          1           0       -1.412787    1.577282    0.082766
      6          6           0        0.667596    0.789310   -0.039358
      7          1           0        1.412769    1.577297   -0.082772
      8          6           0        0.784570   -0.725347   -0.050948
      9          1           0        1.183547   -1.164783   -0.970377
     10          1           0        1.302504   -1.174005    0.802317
 ---------------------------------------------------------------------
                    Distance matrix (angstroms):
                    1          2          3          4          5
     1  C    0.000000
     2  H    1.094365   0.000000
     3  H    1.094355   1.776705   0.000000
     4  C    1.519211   2.225192   2.228482   0.000000
     5  H    2.387010   2.891261   2.892266   1.085399   0.000000
     6  C    2.100270   2.874852   2.884098   1.337520   2.227961
     7  H    3.185649   3.920329   3.931939   2.227961   2.830401
     8  C    1.572438   2.260456   2.263114   2.100270   3.185649
     9  H    2.260456   3.060982   2.491730   2.874852   3.920329
    10  H    2.263114   2.491730   3.059550   2.884098   3.931939
                    6          7          8          9         10
     6  C    0.000000
     7  H    1.085399   0.000000
     8  C    1.519211   2.387010   0.000000
     9  H    2.225192   2.891261   1.094365   0.000000
    10  H    2.228482   2.892266   1.094355   1.776705   0.000000
 Symmetry turned off by external request.
 Stoichiometry    C4H6
 Framework group  C1[X(C4H6)]
 Deg. of freedom    24
 Full point group                 C1      NOp   1
 Rotational constants (GHZ):          12.9436491          12.2401848           6.8322418
 Leave Link  202 at Thu Apr  6 11:07:53 2023, MaxMem=  1073741824 cpu:               0.0 elap:               0.0
 (Enter /home/gaussian/g16/l601.exe)
 Copying SCF densities to generalized density rwf, IOpCl= 0 IROHF=0.

 **********************************************************************

            Population analysis using the SCF Density.

 **********************************************************************

 Alpha  occ. eigenvalues --  -10.17132 -10.17117 -10.16769 -10.16691  -0.85671
 Alpha  occ. eigenvalues --   -0.65814  -0.64467  -0.51732  -0.50152  -0.45981
 Alpha  occ. eigenvalues --   -0.38311  -0.36421  -0.33094  -0.32075  -0.25244
 Alpha virt. eigenvalues --    0.01597   0.05475   0.08107   0.08437   0.08974
 Alpha virt. eigenvalues --    0.10986   0.15571   0.16234   0.17910   0.28563
 Alpha virt. eigenvalues --    0.30698   0.32993   0.33877   0.35586   0.35942
 Alpha virt. eigenvalues --    0.41839   0.43007   0.49476   0.50867   0.52366
 Alpha virt. eigenvalues --    0.53426   0.57125   0.59423   0.60373   0.60428
 Alpha virt. eigenvalues --    0.65786   0.66346   0.67155   0.68911   0.81774
 Alpha virt. eigenvalues --    0.81777   0.92264   1.02895   1.10513   1.16421
 Alpha virt. eigenvalues --    1.17957   1.40294   1.48825   1.51118   1.54889
 Alpha virt. eigenvalues --    1.64971   1.64976   1.66880   1.67774   1.69475
 Alpha virt. eigenvalues --    1.71954   1.86453   1.86911   1.96708   1.98341
 Alpha virt. eigenvalues --    2.02407   2.12429   2.28720   2.32234   2.36747
 Alpha virt. eigenvalues --    2.41924   2.45519   2.59872   2.64252   2.71400
 Alpha virt. eigenvalues --    2.94906   2.97785   3.07520   3.09211   3.10273
 Alpha virt. eigenvalues --    3.21834   3.23040   3.49509   3.63521   3.97591
 Alpha virt. eigenvalues --    4.14321  23.30138  23.58112  23.70914  24.23976
          Condensed to atoms (all electrons):
               1          2          3          4          5          6
     1  C    5.292585   0.377162   0.377273   0.337836  -0.048786  -0.158927
     2  H    0.377162   0.513137  -0.037609  -0.032857   0.000499   0.000944
     3  H    0.377273  -0.037609   0.513460  -0.033283   0.000490   0.001747
     4  C    0.337836  -0.032857  -0.033283   5.065902   0.397557   0.643752
     5  H   -0.048786   0.000499   0.000490   0.397557   0.508061  -0.048922
     6  C   -0.158927   0.000944   0.001747   0.643752  -0.048922   5.065902
     7  H    0.019193  -0.000915  -0.000915  -0.048922  -0.003832   0.397557
     8  C    0.276285  -0.027319  -0.027493  -0.158927   0.019193   0.337836
     9  H   -0.027319   0.001568  -0.001865   0.000944  -0.000915  -0.032857
    10  H   -0.027493  -0.001865   0.001466   0.001747  -0.000915  -0.033283
               7          8          9         10
     1  C    0.019193   0.276285  -0.027319  -0.027493
     2  H   -0.000915  -0.027319   0.001568  -0.001865
     3  H   -0.000915  -0.027493  -0.001865   0.001466
     4  C   -0.048922  -0.158927   0.000944   0.001747
     5  H   -0.003832   0.019193  -0.000915  -0.000915
     6  C    0.397557   0.337836  -0.032857  -0.033283
     7  H    0.508061  -0.048786   0.000499   0.000490
     8  C   -0.048786   5.292585   0.377162   0.377273
     9  H    0.000499   0.377162   0.513137  -0.037609
    10  H    0.000490   0.377273  -0.037609   0.513460
 Mulliken charges:
               1
     1  C   -0.417809
     2  H    0.207256
     3  H    0.206729
     4  C   -0.173747
     5  H    0.177571
     6  C   -0.173747
     7  H    0.177571
     8  C   -0.417809
     9  H    0.207256
    10  H    0.206729
 Sum of Mulliken charges =   0.00000
 Mulliken charges with hydrogens summed into heavy atoms:
               1
     1  C   -0.003824
     4  C    0.003824
     6  C    0.003824
     8  C   -0.003824
 APT charges:
               1
     1  C   -0.895365
     2  H    0.447842
     3  H    0.448682
     4  C   -0.511139
     5  H    0.509980
     6  C   -0.511139
     7  H    0.509981
     8  C   -0.895365
     9  H    0.447842
    10  H    0.448682
 Sum of APT charges =   0.00000
 APT charges with hydrogens summed into heavy atoms:
               1
     1  C    0.001159
     4  C   -0.001159
     6  C   -0.001159
     8  C    0.001159
 Electronic spatial extent (au):  <R**2>=            235.9413
 Charge=             -0.0000 electrons
 Dipole moment (field-independent basis, Debye):
    X=              0.0000    Y=             -0.1218    Z=              0.0000  Tot=              0.1218
 Quadrupole moment (field-independent basis, Debye-Ang):
   XX=            -24.3588   YY=            -24.7687   ZZ=            -26.1842
   XY=              0.0000   XZ=             -0.1091   YZ=             -0.0000
 Traceless Quadrupole moment (field-independent basis, Debye-Ang):
   XX=              0.7451   YY=              0.3352   ZZ=             -1.0803
   XY=              0.0000   XZ=             -0.1091   YZ=             -0.0000
 Octapole moment (field-independent basis, Debye-Ang**2):
  XXX=             -0.0000  YYY=              4.3221  ZZZ=              0.0000  XYY=              0.0000
  XXY=              2.5687  XXZ=             -0.0000  XZZ=              0.0000  YZZ=             -2.1581
  YYZ=             -0.0000  XYZ=             -0.2842
 Hexadecapole moment (field-independent basis, Debye-Ang**3):
 XXXX=           -141.2563 YYYY=           -146.9457 ZZZZ=            -43.6665 XXXY=             -0.0001
 XXXZ=              3.2843 YYYX=              0.0001 YYYZ=              0.0001 ZZZX=              2.8460
 ZZZY=              0.0001 XXYY=            -42.8629 XXZZ=            -29.9022 YYZZ=            -32.3902
 XXYZ=              0.0000 YYXZ=              0.7131 ZZXY=              0.0000
 N-N= 1.130803706145D+02 E-N=-5.876398209333D+02  KE= 1.553157028045D+02
  Exact polarizability:       0.000       0.000       0.000       0.000       0.000       0.000
 Approx polarizability:      76.850       0.000      57.483      -1.956      -0.000      43.860
 No NMR shielding tensors so no spin-rotation constants.
 Leave Link  601 at Thu Apr  6 11:07:53 2023, MaxMem=  1073741824 cpu:               0.3 elap:               0.1
 (Enter /home/gaussian/g16/l9999.exe)

 This type of calculation cannot be archived.


 A MAN THINKING OR WORKING IS ALWAYS ALONE, 
 LET HIM BE WHERE HE WILL.

                                    -- THOREAU
 Job cpu time:       0 days  0 hours 40 minutes 33.6 seconds.
 Elapsed time:       0 days  0 hours  5 minutes 33.7 seconds.
 File lengths (MBytes):  RWF=     14 Int=      0 D2E=      0 Chk=      3 Scr=      1
 Normal termination of Gaussian 16 at Thu Apr  6 11:07:53 2023.
