 Entering Gaussian System, Link 0=g16
 Input=example.gjf
 Output=example.out
 Initial command:
 C:\G16W\l1.exe ".\Gau-15376.inp" "example.out" /scrdir=".\"
 Entering Link 1 = C:\G16W\l1.exe PID=      1416.
  
 Copyright (c) 1988-2017, Gaussian, Inc.  All Rights Reserved.
  
 This is part of the Gaussian(R) 16 program.  It is based on
 the Gaussian(R) 09 system (copyright 2009, Gaussian, Inc.),
 the Gaussian(R) 03 system (copyright 2003, Gaussian, Inc.),
 the Gaussian(R) 98 system (copyright 1998, Gaussian, Inc.),
 the Gaussian(R) 94 system (copyright 1995, Gaussian, Inc.),
 the Gaussian 92(TM) system (copyright 1992, Gaussian, Inc.),
 the Gaussian 90(TM) system (copyright 1990, Gaussian, Inc.),
 the Gaussian 88(TM) system (copyright 1988, Gaussian, Inc.),
 the Gaussian 86(TM) system (copyright 1986, Carnegie Mellon
 University), and the Gaussian 82(TM) system (copyright 1983,
 Carnegie Mellon University). Gaussian is a federally registered
 trademark of Gaussian, Inc.
  
 This software contains proprietary and confidential information,
 including trade secrets, belonging to Gaussian, Inc.
  
 This software is provided under written license and may be
 used, copied, transmitted, or stored only in accord with that
 written license.
  
 The following legend is applicable only to US Government
 contracts under FAR:
  
                    RESTRICTED RIGHTS LEGEND
  
 Use, reproduction and disclosure by the US Government is
 subject to restrictions as set forth in subparagraphs (a)
 and (c) of the Commercial Computer Software - Restricted
 Rights clause in FAR 52.227-19.
  
 Gaussian, Inc.
 340 Quinnipiac St., Bldg. 40, Wallingford CT 06492
  
  
 ---------------------------------------------------------------
 Warning -- This program may not be used in any manner that
 competes with the business of Gaussian, Inc. or will provide
 assistance to any competitor of Gaussian, Inc.  The licensee
 of this program is prohibited from giving any competitor of
 Gaussian, Inc. access to this program.  By using this program,
 the user acknowledges that Gaussian, Inc. is engaged in the
 business of creating and licensing software in the field of
 computational chemistry and represents and warrants to the
 licensee that it is not a competitor of Gaussian, Inc. and that
 it will not use this program in any manner prohibited above.
 ---------------------------------------------------------------
  

 Cite this work as:
 Gaussian 16, Revision B.01,
 M. J. Frisch, G. W. Trucks, H. B. Schlegel, G. E. Scuseria, 
 M. A. Robb, J. R. Cheeseman, G. Scalmani, V. Barone, 
 G. A. Petersson, H. Nakatsuji, X. Li, M. Caricato, A. V. Marenich, 
 J. Bloino, B. G. Janesko, R. Gomperts, B. Mennucci, H. P. Hratchian, 
 J. V. Ortiz, A. F. Izmaylov, J. L. Sonnenberg, D. Williams-Young, 
 F. Ding, F. Lipparini, F. Egidi, J. Goings, B. Peng, A. Petrone, 
 T. Henderson, D. Ranasinghe, V. G. Zakrzewski, J. Gao, N. Rega, 
 G. Zheng, W. Liang, M. Hada, M. Ehara, K. Toyota, R. Fukuda, 
 J. Hasegawa, M. Ishida, T. Nakajima, Y. Honda, O. Kitao, H. Nakai, 
 T. Vreven, K. Throssell, J. A. Montgomery, Jr., J. E. Peralta, 
 F. Ogliaro, M. J. Bearpark, J. J. Heyd, E. N. Brothers, K. N. Kudin, 
 V. N. Staroverov, T. A. Keith, R. Kobayashi, J. Normand, 
 K. Raghavachari, A. P. Rendell, J. C. Burant, S. S. Iyengar, 
 J. Tomasi, M. Cossi, J. M. Millam, M. Klene, C. Adamo, R. Cammi, 
 J. W. Ochterski, R. L. Martin, K. Morokuma, O. Farkas, 
 J. B. Foresman, and D. J. Fox, Gaussian, Inc., Wallingford CT, 2016.
 
 ******************************************
 Gaussian 16:  EM64W-G16RevB.01 16-Dec-2017
                16-Jul-2022 
 ******************************************
 %NProcShared=8
 Will use up to    8 processors via shared memory.
 %Mem=8GB
 %chk=example.chk
 ----------------------------------------------------------------------
 # IRC=(CalcFC,LQA,StepSize=15,MaxPoints=50) SCRF B3LYP/GenECP Empirica
 lDispersion=GD3BJ
 ----------------------------------------------------------------------
 1/10=4,18=10,26=3,38=1,39=15,42=50,44=3,45=2,172=1/1,23;
 2/12=2,17=6,18=5,29=1,40=1/2;
 3/5=7,11=2,16=1,17=8,25=1,30=1,70=2201,71=2,74=-5,124=41,140=1/1,2,3;
 4//1;
 5/5=2,38=5/2;
 8/6=4,10=90,11=11/1;
 11/6=1,8=1,9=11,15=111,16=1/1,2,10;
 10/6=1,13=1/2;
 6/7=2,8=2,9=2,10=2,28=1/1;
 7/10=1,18=20,25=1/1,2,3,16;
 1/10=4,18=10,26=3,39=15,42=50,44=3,45=2/23(2);
 2/29=1/2;
 99/5=20/99;
 2/29=1/2;
 3/5=7,6=1,11=2,16=1,17=8,25=1,30=1,70=2205,71=2,74=-5,82=7,124=41,140=1/1,2,3;
 4/5=5,16=3,69=1/1;
 5/5=2,38=5/2;
 8/6=4,10=90,11=11/1;
 11/6=1,8=1,9=11,15=111,16=1/1,2,10;
 10/6=1,13=1/2;
 7/10=1,18=20,25=1/1,2,3,16;
 1/18=10,26=3,39=15,42=50,44=3,45=2/23(-8);
 2/29=1/2;
 6/7=2,8=2,9=2,10=2,19=2,28=1/1;
 99/5=20,9=1/99;
 ----------------------------------------------------------------------
 Found TS at B3LYP-D3(BJ)/(6-31G* for H and C, 6-31+G* for N, ma-SDD fo
 r I) with IEFPCM water
 ----------------------------------------------------------------------
 Symbolic Z-matrix:
 Charge =  0 Multiplicity = 1
 H                     4.15684   0.757     0.57834 
 H                     4.15702   0.12208  -0.94474 
 H                     4.15631  -0.87953   0.36663 
 H                     1.63967  -0.85274  -0.65379 
 H                     1.6397   -0.13958   1.06547 
 H                     1.63977   0.99277  -0.41177 
 N                     3.79652  -0.00006  -0.00001 
 C                     1.56905   0.00015  -0.00003 
 I                    -1.00716  -0.00001   0. 
 
 IRC-IRC-IRC-IRC-IRC-IRC-IRC-IRC-IRC-IRC-IRC-IRC-IRC-IRC-IRC-IRC-IRC-IRC
 ------------------------------------------------------------------------
 INPUT DATA FOR L123
 ------------------------------------------------------------------------
 GENERAL PARAMETERS:
 Follow reaction path in both directions.
 Maximum points per path      =  50
 Step size                    =   0.150 bohr
 Integration scheme           = LQA                                 
 Initial Hessian              = CalcFC
 Hessian evaluation           = All updating
 Hessian updating method      = Bofill                              
 ------------------------------------------------------------------------
 IRC-IRC-IRC-IRC-IRC-IRC-IRC-IRC-IRC-IRC-IRC-IRC-IRC-IRC-IRC-IRC-IRC-IRC
                          Input orientation:                          
 ---------------------------------------------------------------------
 Center     Atomic      Atomic             Coordinates (Angstroms)
 Number     Number       Type             X           Y           Z
 ---------------------------------------------------------------------
      1          1           0        4.156841    0.757004    0.578341
      2          1           0        4.157017    0.122083   -0.944743
      3          1           0        4.156306   -0.879531    0.366630
      4          1           0        1.639668   -0.852735   -0.653785
      5          1           0        1.639698   -0.139583    1.065474
      6          1           0        1.639766    0.992765   -0.411768
      7          7           0        3.796521   -0.000055   -0.000005
      8          6           0        1.569054    0.000153   -0.000027
      9         53           0       -1.007156   -0.000010    0.000001
 ---------------------------------------------------------------------
                    Distance matrix (angstroms):
                    1          2          3          4          5
     1  H    0.000000
     2  H    1.650124   0.000000
     3  H    1.650172   1.650130   0.000000
     4  H    3.231958   2.715138   2.715775   0.000000
     5  H    2.716096   3.232079   2.714631   1.861300   0.000000
     6  H    2.715063   2.716377   3.231775   1.861301   1.861305
     7  N    1.018554   1.018531   1.018501   2.409669   2.409689
     8  C    2.757531   2.757700   2.757200   1.076942   1.076944
     9  I    5.251134   5.251298   5.250649   2.856616   2.856668
                    6          7          8          9
     6  H    0.000000
     7  N    2.409737   0.000000
     8  C    1.076944   2.227467   0.000000
     9  I    2.856808   4.803677   2.576210   0.000000
 Symmetry turned off by external request.
 This structure is nearly, but not quite of a higher symmetry.
 Consider Symm=Loose if the higher symmetry is desired.
 Stoichiometry    CH6IN
 Framework group  C1[X(CH6IN)]
 Deg. of freedom    21
 Full point group                 C1      NOp   1
 Rotational constants (GHZ):          81.0443634           1.2196511           1.2196508
 General basis read from cards:  (5D, 7F)
 ======================================================================================================
                                       Pseudopotential Parameters
 ======================================================================================================
  Center     Atomic      Valence      Angular      Power
  Number     Number     Electrons     Momentum     of R      Exponent        Coefficient   SO-Coeffient
 ======================================================================================================
    1          1
                                   No pseudopotential on this center.
    2          1
                                   No pseudopotential on this center.
    3          1
                                   No pseudopotential on this center.
    4          1
                                   No pseudopotential on this center.
    5          1
                                   No pseudopotential on this center.
    6          1
                                   No pseudopotential on this center.
    7          7
                                   No pseudopotential on this center.
    8          6
                                   No pseudopotential on this center.
    9         53            7
                                      G and up 
                                                     2        1.0000000        0.00000000    0.00000000
                                      S - G
                                                     2        3.5112000       83.11386300    0.00000000
                                                     2        1.7556000        5.20187600    0.00000000
                                      P - G
                                                     2        2.9688000       82.81110900    0.00000000
                                                     2        1.4844000        3.37968200    0.00000000
                                      D - G
                                                     2        1.9066000       10.30427700    0.00000000
                                                     2        0.9533000        7.58803200    0.00000000
                                      F - G
                                                     2        2.3075000      -21.47793600    0.00000000
 ======================================================================================================
    59 basis functions,   107 primitive gaussians,    61 cartesian basis functions
    13 alpha electrons       13 beta electrons
       nuclear repulsion energy        61.3059191525 Hartrees.
 NAtoms=    9 NActive=    9 NUniq=    9 SFac= 1.00D+00 NAtFMM=   60 NAOKFM=F Big=F
 Integral buffers will be    131072 words long.
 Raffenetti 2 integral format.
 Two-electron integral symmetry is turned off.
 Nuclear repulsion after empirical dispersion term =       61.2967813116 Hartrees.
 Force inversion solution in PCM.
 ------------------------------------------------------------------------------
 Polarizable Continuum Model (PCM)
 =================================
 Model                : PCM.
 Atomic radii         : UFF (Universal Force Field).
 Polarization charges : Total charges.
 Charge compensation  : None.
 Solution method      : Matrix inversion.
 Cavity type          : Scaled VdW (van der Waals Surface) (Alpha=1.100).
 Cavity algorithm     : GePol (No added spheres)
                        Default sphere list used, NSphG=    9.
                        Lebedev-Laikov grids with approx.  5.0 points / Ang**2.
                        Smoothing algorithm: York/Karplus (Gamma=1.0000).
                        Polarization charges: spherical gaussians, with
                                              point-specific exponents (IZeta= 3).
                        Self-potential: point-specific (ISelfS= 7).
                        Self-field    : sphere-specific E.n sum rule (ISelfD= 2).
 1st derivatives      : Analytical E(r).r(x)/FMM algorithm (CHGder, D1EAlg=3).
                        Cavity 1st derivative terms included.
 2nd derivatives      : Analytical E(r).r(xy)/FMM algorithm (CHGder, D2EAlg=3).
                        Cavity 2nd derivative terms included.
 Solvent              : Water, Eps=  78.355300 Eps(inf)=   1.777849
 ------------------------------------------------------------------------------
 Spheres list:
 ISph  on   Nord     Re0    Alpha      Xe            Ye            Ze
    1   H      1    1.4430  1.100      4.156841      0.757004      0.578341
    2   H      2    1.4430  1.100      4.157017      0.122083     -0.944743
    3   H      3    1.4430  1.100      4.156306     -0.879531      0.366630
    4   H      4    1.4430  1.100      1.639668     -0.852735     -0.653785
    5   H      5    1.4430  1.100      1.639698     -0.139583      1.065474
    6   H      6    1.4430  1.100      1.639766      0.992765     -0.411768
    7   N      7    1.8300  1.100      3.796521     -0.000055     -0.000005
    8   C      8    1.9255  1.100      1.569054      0.000153     -0.000027
    9   I      9    2.2500  1.100     -1.007156     -0.000010      0.000001
 ------------------------------------------------------------------------------
 One-electron integrals computed using PRISM.
   1 Symmetry operations used in ECPInt.
 ECPInt:  NShTT=     406 NPrTT=    1771 LenC2=     407 LenP2D=    1540.
 LDataN:  DoStor=T MaxTD1= 6 Len=  172
 NBasis=    59 RedAO= T EigKep=  1.39D-02  NBF=    59
 NBsUse=    59 1.00D-06 EigRej= -1.00D+00 NBFU=    59
 Defaulting to unpruned grid for atomic number  53.
 ExpMin= 1.09D-02 ExpMax= 4.17D+03 ExpMxC= 6.27D+02 IAcc=3 IRadAn=         5 AccDes= 0.00D+00
 Harris functional with IExCor=  402 and IRadAn=       5 diagonalized for initial guess.
 HarFok:  IExCor=  402 AccDes= 0.00D+00 IRadAn=         5 IDoV= 1 UseB2=F ITyADJ=14
 ICtDFT=  3500011 ScaDFX=  1.000000  1.000000  1.000000  1.000000
 Defaulting to unpruned grid for atomic number  53.
 FoFCou: FMM=F IPFlag=           0 FMFlag=      100000 FMFlg1=           0
         NFxFlg=           0 DoJE=T BraDBF=F KetDBF=T FulRan=T
         wScrn=  0.000000 ICntrl=       500 IOpCl=  0 I1Cent=   200000004 NGrid=           0
         NMat0=    1 NMatS0=      1 NMatT0=    0 NMatD0=    1 NMtDS0=    0 NMtDT0=    0
 Symmetry not used in FoFCou.
 Keep R1 ints in memory in canonical form, NReq=8649263.
 Requested convergence on RMS density matrix=1.00D-08 within 128 cycles.
 Requested convergence on MAX density matrix=1.00D-06.
 Requested convergence on             energy=1.00D-06.
 No special actions if energy rises.
 Defaulting to unpruned grid for atomic number  53.
 Defaulting to unpruned grid for atomic number  53.
 Defaulting to unpruned grid for atomic number  53.
 Defaulting to unpruned grid for atomic number  53.
 Defaulting to unpruned grid for atomic number  53.
 Defaulting to unpruned grid for atomic number  53.
 Defaulting to unpruned grid for atomic number  53.
 Defaulting to unpruned grid for atomic number  53.
 Inv3:  Mode=1 IEnd=     3072432.
 Iteration    1 A*A^-1 deviation from unit magnitude is 4.22D-15 for     23.
 Iteration    1 A*A^-1 deviation from orthogonality  is 2.59D-15 for    468    146.
 Iteration    1 A^-1*A deviation from unit magnitude is 4.00D-15 for     23.
 Iteration    1 A^-1*A deviation from orthogonality  is 1.85D-15 for    559    364.
 Error on total polarization charges =  0.02384
 SCF Done:  E(RB3LYP) =  -107.889491799     A.U. after   10 cycles
            NFock= 10  Conv=0.70D-08     -V/T= 2.0877
 DoSCS=F DFT=T ScalE2(SS,OS)=  1.000000  1.000000
 Range of M.O.s used for correlation:     1    59
 NBasis=    59 NAE=    13 NBE=    13 NFC=     0 NFV=     0
 NROrb=     59 NOA=    13 NOB=    13 NVA=    46 NVB=    46
   1 Symmetry operations used in ECPInt.
 ECPInt:  NShTT=     406 NPrTT=    1771 LenC2=     407 LenP2D=    1540.
 LDataN:  DoStor=T MaxTD1= 7 Len=  274
 Symmetrizing basis deriv contribution to polar:
 IMax=3 JMax=2 DiffMx= 0.00D+00
 G2DrvN: will do    10 centers at a time, making    1 passes.
 Calling FoFCou, ICntrl=  3107 FMM=F I1Cent=   0 AccDes= 0.00D+00.
 Defaulting to unpruned grid for atomic number  53.
 Defaulting to unpruned grid for atomic number  53.
 Defaulting to unpruned grid for atomic number  53.
 Defaulting to unpruned grid for atomic number  53.
 Defaulting to unpruned grid for atomic number  53.
 Defaulting to unpruned grid for atomic number  53.
 Defaulting to unpruned grid for atomic number  53.
 Defaulting to unpruned grid for atomic number  53.
 NEqPCM:  Using equilibrium solvation (IEInf=0, Eps=  78.3553, EpsInf=   1.7778)
 G2PCM: DoFxE=T DoFxN=T DoGrad=T DoDP/DQ/DG/TGxP=FFFF NFrqRd=   0 IEInf=0 SqF1=F DoCFld=F IF1Alg=4.
 End of G2Drv F.D. properties file   721 does not exist.
 End of G2Drv F.D. properties file   722 does not exist.
 End of G2Drv F.D. properties file   788 does not exist.
          IDoAtm=111111111
 NEqPCM:  Using equilibrium solvation (IEInf=0, Eps=  78.3553, EpsInf=   1.7778)
          Differentiating once with respect to nuclear coordinates.
 Defaulting to unpruned grid for atomic number  53.
 Keep R1 ints in memory in canonical form, NReq=8629948.
 Defaulting to unpruned grid for atomic number  53.
 Defaulting to unpruned grid for atomic number  53.
 Defaulting to unpruned grid for atomic number  53.
 Defaulting to unpruned grid for atomic number  53.
 Defaulting to unpruned grid for atomic number  53.
 Defaulting to unpruned grid for atomic number  53.
 Defaulting to unpruned grid for atomic number  53.
 Defaulting to unpruned grid for atomic number  53.
          There are    30 degrees of freedom in the 1st order CPHF.  IDoFFX=6 NUNeed=     0.
     24 vectors produced by pass  0 Test12= 1.99D-15 3.33D-09 XBig12= 2.74D-02 7.26D-02.
 AX will form    24 AO Fock derivatives at one time.
     24 vectors produced by pass  1 Test12= 1.99D-15 3.33D-09 XBig12= 3.18D-03 2.02D-02.
     24 vectors produced by pass  2 Test12= 1.99D-15 3.33D-09 XBig12= 2.65D-05 1.42D-03.
     24 vectors produced by pass  3 Test12= 1.99D-15 3.33D-09 XBig12= 5.27D-08 8.10D-05.
     23 vectors produced by pass  4 Test12= 1.99D-15 3.33D-09 XBig12= 3.78D-11 1.88D-06.
     11 vectors produced by pass  5 Test12= 1.99D-15 3.33D-09 XBig12= 1.89D-14 4.55D-08.
 InvSVY:  IOpt=1 It=  1 EMax= 1.44D-15
 Solved reduced A of dimension   130 with    24 vectors.
 End of Minotr F.D. properties file   721 does not exist.
 End of Minotr F.D. properties file   722 does not exist.
 End of Minotr F.D. properties file   788 does not exist.

 **********************************************************************

            Population analysis using the SCF Density.

 **********************************************************************

 Alpha  occ. eigenvalues --  -14.35123 -10.24829  -0.88814  -0.71879  -0.63073
 Alpha  occ. eigenvalues --   -0.49977  -0.49975  -0.44693  -0.44692  -0.34579
 Alpha  occ. eigenvalues --   -0.25202  -0.24263  -0.24262
 Alpha virt. eigenvalues --   -0.05010   0.00423   0.01236   0.01241   0.02062
 Alpha virt. eigenvalues --    0.04814   0.07824   0.08419   0.08422   0.09348
 Alpha virt. eigenvalues --    0.09349   0.13211   0.15948   0.15948   0.21700
 Alpha virt. eigenvalues --    0.21975   0.21977   0.32255   0.55465   0.55466
 Alpha virt. eigenvalues --    0.72249   0.81098   0.81098   0.83690   0.84571
 Alpha virt. eigenvalues --    0.84572   0.90323   0.90324   0.91344   0.94600
 Alpha virt. eigenvalues --    0.96703   0.96704   1.04767   1.16111   1.50856
 Alpha virt. eigenvalues --    1.60167   1.60170   1.68670   1.68671   1.92933
 Alpha virt. eigenvalues --    2.13042   2.19764   2.19765   2.41791   2.41797
 Alpha virt. eigenvalues --   13.77309
          Condensed to atoms (all electrons):
               1          2          3          4          5          6
     1  H    0.324254  -0.021042  -0.021040   0.000875  -0.000536  -0.000541
     2  H   -0.021042   0.324302  -0.021047  -0.000540   0.000875  -0.000536
     3  H   -0.021040  -0.021047   0.324282  -0.000537  -0.000541   0.000875
     4  H    0.000875  -0.000540  -0.000537   0.454657  -0.019652  -0.019651
     5  H   -0.000536   0.000875  -0.000541  -0.019652   0.454613  -0.019648
     6  H   -0.000541  -0.000536   0.000875  -0.019651  -0.019648   0.454603
     7  N    0.292197   0.292192   0.292189  -0.026123  -0.026120  -0.026122
     8  C   -0.002947  -0.002946  -0.002954   0.379373   0.379372   0.379371
     9  I    0.000031   0.000031   0.000031  -0.034756  -0.034747  -0.034744
               7          8          9
     1  H    0.292197  -0.002947   0.000031
     2  H    0.292192  -0.002946   0.000031
     3  H    0.292189  -0.002954   0.000031
     4  H   -0.026123   0.379373  -0.034756
     5  H   -0.026120   0.379372  -0.034747
     6  H   -0.026122   0.379371  -0.034744
     7  N    7.317083   0.008400   0.010625
     8  C    0.008400   5.176426   0.131103
     9  I    0.010625   0.131103   7.468238
 Mulliken charges:
               1
     1  H    0.428749
     2  H    0.428711
     3  H    0.428743
     4  H    0.266354
     5  H    0.266384
     6  H    0.266393
     7  N   -1.134323
     8  C   -0.445198
     9  I   -0.505812
 Sum of Mulliken charges =   0.00000
 Mulliken charges with hydrogens summed into heavy atoms:
               1
     7  N    0.151880
     8  C    0.353932
     9  I   -0.505812
 APT charges:
               1
     1  H    0.767463
     2  H    0.767541
     3  H    0.767099
     4  H    0.481348
     5  H    0.481390
     6  H    0.481456
     7  N   -2.298561
     8  C   -1.015914
     9  I   -0.431824
 Sum of APT charges =   0.00000
 APT charges with hydrogens summed into heavy atoms:
               1
     7  N    0.003543
     8  C    0.428281
     9  I   -0.431824
 Electronic spatial extent (au):  <R**2>=            733.9941
 Charge=              0.0000 electrons
 Dipole moment (field-independent basis, Debye):
    X=             11.5104    Y=              0.0001    Z=              0.0006  Tot=             11.5104
 Quadrupole moment (field-independent basis, Debye-Ang):
   XX=             -8.9768   YY=            -35.5792   ZZ=            -35.5796
   XY=              0.0004   XZ=              0.0014   YZ=             -0.0001
 Traceless Quadrupole moment (field-independent basis, Debye-Ang):
   XX=             17.7351   YY=             -8.8673   ZZ=             -8.8677
   XY=              0.0004   XZ=              0.0014   YZ=             -0.0001
 Octapole moment (field-independent basis, Debye-Ang**2):
  XXX=             76.2533  YYY=              0.0143  ZZZ=              0.0218  XYY=             -5.4042
  XXY=              0.0033  XXZ=              0.0022  XZZ=             -5.4048  YZZ=             -0.0151
  YYZ=             -0.0202  XYZ=              0.0001
 Hexadecapole moment (field-independent basis, Debye-Ang**3):
 XXXX=           -453.3273 YYYY=            -72.4465 ZZZZ=            -72.4483 XXXY=              0.0337
 XXXZ=             -0.0069 YYYX=             -1.0914 YYYZ=             -0.0012 ZZZX=             -2.7060
 ZZZY=              0.0003 XXYY=           -140.5803 XXZZ=           -140.5792 YYZZ=            -24.1492
 XXYZ=              0.0019 YYXZ=              2.7104 ZZXY=              1.0901
 N-N= 6.129678131163D+01 E-N=-3.677354660876D+02  KE= 9.918939759185D+01
  Exact polarizability:   0.000   0.000   0.000   0.000   0.000   0.000
 Approx polarizability: 166.963   0.004  41.654  -0.002   0.000  41.654
   1 Symmetry operations used in ECPInt.
 ECPInt:  NShTT=     406 NPrTT=    1771 LenC2=     407 LenP2D=    1540.
 LDataN:  DoStor=T MaxTD1= 8 Len=  415
 D2PCM: PCM CHGder 2nd derivatives, FixD1E=F FixD2E=F DoIter=F DoCFld=F I1PDM=0
 Calling FoFJK, ICntrl=    100147 FMM=F ISym2X=0 I1Cent= 0 IOpClX= 0 NMat=1 NMatS=1 NMatT=0.
 Defaulting to unpruned grid for atomic number  53.
 Defaulting to unpruned grid for atomic number  53.
 Defaulting to unpruned grid for atomic number  53.
 Defaulting to unpruned grid for atomic number  53.
 Defaulting to unpruned grid for atomic number  53.
 Defaulting to unpruned grid for atomic number  53.
 Defaulting to unpruned grid for atomic number  53.
 Defaulting to unpruned grid for atomic number  53.
 -------------------------------------------------------------------
 Center     Atomic                   Forces (Hartrees/Bohr)
 Number     Number              X              Y              Z
 -------------------------------------------------------------------
      1        1          -0.000015150   -0.000021117    0.000006532
      2        1          -0.000000044   -0.000021117   -0.000011138
      3        1           0.000019266   -0.000026088    0.000015475
      4        1           0.000011746   -0.000003109   -0.000000025
      5        1           0.000005589    0.000001348    0.000000590
      6        1           0.000000629   -0.000000294   -0.000001408
      7        7          -0.000018224    0.000070225   -0.000008871
      8        6           0.000009464   -0.000004972    0.000000774
      9       53          -0.000013277    0.000005124   -0.000001928
 -------------------------------------------------------------------
 Cartesian Forces:  Max     0.000070225 RMS     0.000017666
 IRC-IRC-IRC-IRC-IRC-IRC-IRC-IRC-IRC-IRC-IRC-IRC-IRC-IRC-IRC-IRC-IRC-IRC
          ******** Start new reaction path calculation ********
 Supplied step size of   0.1500 bohr.
    Integration on MW PES will use step size of   0.4365 sqrt(amu)*bohr.
 Point Number:   0          Path Number:   1
 Calculating another point on the path.
 IRC-IRC-IRC-IRC-IRC-IRC-IRC-IRC-IRC-IRC-IRC-IRC-IRC-IRC-IRC-IRC-IRC-IRC
                          Input orientation:                          
 ---------------------------------------------------------------------
 Center     Atomic      Atomic             Coordinates (Angstroms)
 Number     Number       Type             X           Y           Z
 ---------------------------------------------------------------------
      1          1           0        4.424060    0.755687    0.577396
      2          1           0        4.424207    0.121876   -0.943149
      3          1           0        4.423358   -0.878116    0.366002
      4          1           0        1.875096   -0.850277   -0.651887
      5          1           0        1.875169   -0.139139    1.062429
      6          1           0        1.875144    0.989935   -0.410615
      7          7           0        4.059867   -0.000061   -0.000009
      8          6           0        1.749988    0.000181   -0.000018
      9         53           0       -0.763555   -0.000010    0.000001
 ---------------------------------------------------------------------
                    Distance matrix (angstroms):
                    1          2          3          4          5
     1  H    0.000000
     2  H    1.647354   0.000000
     3  H    1.647423   1.647380   0.000000
     4  H    3.253840   2.743698   2.744178   0.000000
     5  H    2.744598   3.253931   2.743058   1.855962   0.000000
     6  H    2.743722   2.744966   3.253636   1.855961   1.855982
     7  N    1.018424   1.018394   1.018367   2.433317   2.433315
     8  C    2.838108   2.838265   2.837655   1.078825   1.078830
     9  I    5.274070   5.274207   5.273433   2.847875   2.847977
                    6          7          8          9
     6  H    0.000000
     7  N    2.433455   0.000000
     8  C    1.078827   2.309878   0.000000
     9  I    2.848039   4.823421   2.513543   0.000000
 Symmetry turned off by external request.
 Stoichiometry    CH6IN
 Framework group  C1[X(CH6IN)]
 Deg. of freedom    21
 Full point group                 C1      NOp   1
 Rotational constants (GHZ):          81.4249036           1.2194087           1.2194083
 Basis read from rwf:  (5D, 7F)
 Pseudo-potential data read from rwf file.
    59 basis functions,   107 primitive gaussians,    61 cartesian basis functions
    13 alpha electrons       13 beta electrons
       nuclear repulsion energy        60.9774013119 Hartrees.
 NAtoms=    9 NActive=    9 NUniq=    9 SFac= 1.00D+00 NAtFMM=   60 NAOKFM=F Big=F
 Integral buffers will be    131072 words long.
 Raffenetti 2 integral format.
 Two-electron integral symmetry is turned off.
 Nuclear repulsion after empirical dispersion term =       60.9683190317 Hartrees.
 Force inversion solution in PCM.
 ------------------------------------------------------------------------------
 Polarizable Continuum Model (PCM)
 =================================
 Model                : PCM.
 Atomic radii         : UFF (Universal Force Field).
 Polarization charges : Total charges.
 Charge compensation  : None.
 Solution method      : Matrix inversion.
 Cavity type          : Scaled VdW (van der Waals Surface) (Alpha=1.100).
 Cavity algorithm     : GePol (No added spheres)
                        Default sphere list used, NSphG=    9.
                        Lebedev-Laikov grids with approx.  5.0 points / Ang**2.
                        Smoothing algorithm: York/Karplus (Gamma=1.0000).
                        Polarization charges: spherical gaussians, with
                                              point-specific exponents (IZeta= 3).
                        Self-potential: point-specific (ISelfS= 7).
                        Self-field    : sphere-specific E.n sum rule (ISelfD= 2).
 1st derivatives      : Analytical E(r).r(x)/FMM algorithm (CHGder, D1EAlg=3).
                        Cavity 1st derivative terms included.
 Solvent              : Water, Eps=  78.355300 Eps(inf)=   1.777849
 ------------------------------------------------------------------------------
 Spheres list:
 ISph  on   Nord     Re0    Alpha      Xe            Ye            Ze
    1   H      1    1.4430  1.100      4.424060      0.755687      0.577396
    2   H      2    1.4430  1.100      4.424207      0.121876     -0.943149
    3   H      3    1.4430  1.100      4.423358     -0.878116      0.366002
    4   H      4    1.4430  1.100      1.875096     -0.850277     -0.651887
    5   H      5    1.4430  1.100      1.875169     -0.139139      1.062429
    6   H      6    1.4430  1.100      1.875144      0.989935     -0.410615
    7   N      7    1.8300  1.100      4.059867     -0.000061     -0.000009
    8   C      8    1.9255  1.100      1.749988      0.000181     -0.000018
    9   I      9    2.2500  1.100     -0.763555     -0.000010      0.000001
 ------------------------------------------------------------------------------
 One-electron integrals computed using PRISM.
   1 Symmetry operations used in ECPInt.
 ECPInt:  NShTT=     406 NPrTT=    1771 LenC2=     407 LenP2D=    1541.
 LDataN:  DoStor=T MaxTD1= 6 Len=  172
 NBasis=    59 RedAO= T EigKep=  1.40D-02  NBF=    59
 NBsUse=    59 1.00D-06 EigRej= -1.00D+00 NBFU=    59
 Defaulting to unpruned grid for atomic number  53.
 Initial guess from the checkpoint file:  "example.chk"
 B after Tr=     0.455310    0.000002    0.000002
         Rot=    1.000000    0.000000    0.000000    0.000000 Ang=   0.00 deg.
 ExpMin= 1.09D-02 ExpMax= 4.17D+03 ExpMxC= 6.27D+02 IAcc=3 IRadAn=         5 AccDes= 0.00D+00
 Harris functional with IExCor=  402 and IRadAn=       5 diagonalized for initial guess.
 HarFok:  IExCor=  402 AccDes= 0.00D+00 IRadAn=         5 IDoV= 1 UseB2=F ITyADJ=14
 ICtDFT=  3500011 ScaDFX=  1.000000  1.000000  1.000000  1.000000
 Defaulting to unpruned grid for atomic number  53.
 FoFCou: FMM=F IPFlag=           0 FMFlag=      100000 FMFlg1=           0
         NFxFlg=           0 DoJE=T BraDBF=F KetDBF=T FulRan=T
         wScrn=  0.000000 ICntrl=       500 IOpCl=  0 I1Cent=   200000004 NGrid=           0
         NMat0=    1 NMatS0=      1 NMatT0=    0 NMatD0=    1 NMtDS0=    0 NMtDT0=    0
 Symmetry not used in FoFCou.
 Keep R1 ints in memory in canonical form, NReq=8649263.
 Requested convergence on RMS density matrix=1.00D-08 within 128 cycles.
 Requested convergence on MAX density matrix=1.00D-06.
 Requested convergence on             energy=1.00D-06.
 No special actions if energy rises.
 Defaulting to unpruned grid for atomic number  53.
 Defaulting to unpruned grid for atomic number  53.
 Defaulting to unpruned grid for atomic number  53.
 Defaulting to unpruned grid for atomic number  53.
 Defaulting to unpruned grid for atomic number  53.
 Defaulting to unpruned grid for atomic number  53.
 Defaulting to unpruned grid for atomic number  53.
 Defaulting to unpruned grid for atomic number  53.
 Inv3:  Mode=1 IEnd=     3084588.
 Iteration    1 A*A^-1 deviation from unit magnitude is 3.66D-15 for     33.
 Iteration    1 A*A^-1 deviation from orthogonality  is 1.99D-15 for    636    275.
 Iteration    1 A^-1*A deviation from unit magnitude is 3.77D-15 for    891.
 Iteration    1 A^-1*A deviation from orthogonality  is 2.27D-15 for    588    374.
 Error on total polarization charges =  0.02279
 SCF Done:  E(RB3LYP) =  -107.890066568     A.U. after   10 cycles
            NFock= 10  Conv=0.21D-08     -V/T= 2.0876
 DoSCS=F DFT=T ScalE2(SS,OS)=  1.000000  1.000000
 Range of M.O.s used for correlation:     1    59
 NBasis=    59 NAE=    13 NBE=    13 NFC=     0 NFV=     0
 NROrb=     59 NOA=    13 NOB=    13 NVA=    46 NVB=    46
 Symmetrizing basis deriv contribution to polar:
 IMax=3 JMax=2 DiffMx= 0.00D+00
   1 Symmetry operations used in ECPInt.
 ECPInt:  NShTT=     406 NPrTT=    1771 LenC2=     407 LenP2D=    1541.
 LDataN:  DoStor=T MaxTD1= 7 Len=  274
 D1PCM: PCM CHGder 1st derivatives, ID1Alg=3 FixD1E=F DoIter=F DoCFld=F I1PDM=0.
 Calling FoFJK, ICntrl=      2147 FMM=F ISym2X=0 I1Cent= 0 IOpClX= 0 NMat=1 NMatS=1 NMatT=0.
 Defaulting to unpruned grid for atomic number  53.
 Defaulting to unpruned grid for atomic number  53.
 Defaulting to unpruned grid for atomic number  53.
 Defaulting to unpruned grid for atomic number  53.
 Defaulting to unpruned grid for atomic number  53.
 Defaulting to unpruned grid for atomic number  53.
 Defaulting to unpruned grid for atomic number  53.
 Defaulting to unpruned grid for atomic number  53.
 -------------------------------------------------------------------
 Center     Atomic                   Forces (Hartrees/Bohr)
 Number     Number              X              Y              Z
 -------------------------------------------------------------------
      1        1           0.000326919   -0.000008914    0.000016917
      2        1           0.000346047   -0.000018260   -0.000029407
      3        1           0.000361564   -0.000042885    0.000021398
      4        1          -0.000319965    0.000687218    0.000529796
      5        1          -0.000324601    0.000113645   -0.000863467
      6        1          -0.000330404   -0.000801701    0.000332518
      7        7           0.003275514    0.000069682   -0.000008722
      8        6          -0.007408659   -0.000005546    0.000001071
      9       53           0.004073585    0.000006762   -0.000000105
 -------------------------------------------------------------------
 Cartesian Forces:  Max     0.007408659 RMS     0.001775963
 IRC-IRC-IRC-IRC-IRC-IRC-IRC-IRC-IRC-IRC-IRC-IRC-IRC-IRC-IRC-IRC-IRC-IRC
 Pt  1 Step number   1 out of a maximum of  20
 Point Number:   1          Path Number:   1
   CHANGE IN THE REACTION COORDINATE =    0.43645
   NET REACTION COORDINATE UP TO THIS POINT =    0.43645
  # OF POINTS ALONG THE PATH =   1
  # OF STEPS =   1

 Calculating another point on the path.
 IRC-IRC-IRC-IRC-IRC-IRC-IRC-IRC-IRC-IRC-IRC-IRC-IRC-IRC-IRC-IRC-IRC-IRC
                          Input orientation:                          
 ---------------------------------------------------------------------
 Center     Atomic      Atomic             Coordinates (Angstroms)
 Number     Number       Type             X           Y           Z
 ---------------------------------------------------------------------
      1          1           0        4.450687    0.754290    0.576374
      2          1           0        4.451321    0.121441   -0.941319
      3          1           0        4.450153   -0.876420    0.365542
      4          1           0        1.864758   -0.846347   -0.648768
      5          1           0        1.864831   -0.138456    1.057416
      6          1           0        1.864632    0.985233   -0.408754
      7          7           0        4.081814   -0.000045   -0.000025
      8          6           0        1.690277    0.000154   -0.000030
      9         53           0       -0.760722   -0.000008    0.000002
 ---------------------------------------------------------------------
                    Distance matrix (angstroms):
                    1          2          3          4          5
     1  H    0.000000
     2  H    1.644351   0.000000
     3  H    1.644282   1.644267   0.000000
     4  H    3.278725   2.777140   2.777408   0.000000
     5  H    2.777598   3.279088   2.776179   1.847207   0.000000
     6  H    2.776958   2.778619   3.278751   1.847239   1.847250
     7  N    1.018491   1.018494   1.018502   2.460169   2.460153
     8  C    2.919045   2.919606   2.918722   1.080679   1.080682
     9  I    5.297164   5.297756   5.296691   2.833785   2.833870
                    6          7          8          9
     6  H    0.000000
     7  N    2.460433   0.000000
     8  C    1.080665   2.391537   0.000000
     9  I    2.833772   4.842535   2.450999   0.000000
 Symmetry turned off by external request.
 Stoichiometry    CH6IN
 Framework group  C1[X(CH6IN)]
 Deg. of freedom    21
 Full point group                 C1      NOp   1
 Rotational constants (GHZ):          81.9908365           1.2192012           1.2192010
 Basis read from rwf:  (5D, 7F)
 Pseudo-potential data read from rwf file.
    59 basis functions,   107 primitive gaussians,    61 cartesian basis functions
    13 alpha electrons       13 beta electrons
       nuclear repulsion energy        60.6924106020 Hartrees.
 NAtoms=    9 NActive=    9 NUniq=    9 SFac= 1.00D+00 NAtFMM=   60 NAOKFM=F Big=F
 Integral buffers will be    131072 words long.
 Raffenetti 2 integral format.
 Two-electron integral symmetry is turned off.
 Nuclear repulsion after empirical dispersion term =       60.6833878252 Hartrees.
 Force inversion solution in PCM.
 ------------------------------------------------------------------------------
 Polarizable Continuum Model (PCM)
 =================================
 Model                : PCM.
 Atomic radii         : UFF (Universal Force Field).
 Polarization charges : Total charges.
 Charge compensation  : None.
 Solution method      : Matrix inversion.
 Cavity type          : Scaled VdW (van der Waals Surface) (Alpha=1.100).
 Cavity algorithm     : GePol (No added spheres)
                        Default sphere list used, NSphG=    9.
                        Lebedev-Laikov grids with approx.  5.0 points / Ang**2.
                        Smoothing algorithm: York/Karplus (Gamma=1.0000).
                        Polarization charges: spherical gaussians, with
                                              point-specific exponents (IZeta= 3).
                        Self-potential: point-specific (ISelfS= 7).
                        Self-field    : sphere-specific E.n sum rule (ISelfD= 2).
 1st derivatives      : Analytical E(r).r(x)/FMM algorithm (CHGder, D1EAlg=3).
                        Cavity 1st derivative terms included.
 Solvent              : Water, Eps=  78.355300 Eps(inf)=   1.777849
 ------------------------------------------------------------------------------
 Spheres list:
 ISph  on   Nord     Re0    Alpha      Xe            Ye            Ze
    1   H      1    1.4430  1.100      4.450687      0.754290      0.576374
    2   H      2    1.4430  1.100      4.451321      0.121441     -0.941319
    3   H      3    1.4430  1.100      4.450153     -0.876420      0.365542
    4   H      4    1.4430  1.100      1.864758     -0.846347     -0.648768
    5   H      5    1.4430  1.100      1.864831     -0.138456      1.057416
    6   H      6    1.4430  1.100      1.864632      0.985233     -0.408754
    7   N      7    1.8300  1.100      4.081814     -0.000045     -0.000025
    8   C      8    1.9255  1.100      1.690277      0.000154     -0.000030
    9   I      9    2.2500  1.100     -0.760722     -0.000008      0.000002
 ------------------------------------------------------------------------------
 One-electron integrals computed using PRISM.
   1 Symmetry operations used in ECPInt.
 ECPInt:  NShTT=     406 NPrTT=    1771 LenC2=     407 LenP2D=    1540.
 LDataN:  DoStor=T MaxTD1= 6 Len=  172
 NBasis=    59 RedAO= T EigKep=  1.40D-02  NBF=    59
 NBsUse=    59 1.00D-06 EigRej= -1.00D+00 NBFU=    59
 Defaulting to unpruned grid for atomic number  53.
 Initial guess from the checkpoint file:  "example.chk"
 B after Tr=    -0.000135   -0.000003    0.000002
         Rot=    1.000000    0.000047    0.000002    0.000001 Ang=   0.01 deg.
 ExpMin= 1.09D-02 ExpMax= 4.17D+03 ExpMxC= 6.27D+02 IAcc=3 IRadAn=         5 AccDes= 0.00D+00
 Harris functional with IExCor=  402 and IRadAn=       5 diagonalized for initial guess.
 HarFok:  IExCor=  402 AccDes= 0.00D+00 IRadAn=         5 IDoV= 1 UseB2=F ITyADJ=14
 ICtDFT=  3500011 ScaDFX=  1.000000  1.000000  1.000000  1.000000
 Defaulting to unpruned grid for atomic number  53.
 FoFCou: FMM=F IPFlag=           0 FMFlag=      100000 FMFlg1=           0
         NFxFlg=           0 DoJE=T BraDBF=F KetDBF=T FulRan=T
         wScrn=  0.000000 ICntrl=       500 IOpCl=  0 I1Cent=   200000004 NGrid=           0
         NMat0=    1 NMatS0=      1 NMatT0=    0 NMatD0=    1 NMtDS0=    0 NMtDT0=    0
 Symmetry not used in FoFCou.
 Keep R1 ints in memory in canonical form, NReq=8649263.
 Requested convergence on RMS density matrix=1.00D-08 within 128 cycles.
 Requested convergence on MAX density matrix=1.00D-06.
 Requested convergence on             energy=1.00D-06.
 No special actions if energy rises.
 Defaulting to unpruned grid for atomic number  53.
 Defaulting to unpruned grid for atomic number  53.
 Defaulting to unpruned grid for atomic number  53.
 Defaulting to unpruned grid for atomic number  53.
 Defaulting to unpruned grid for atomic number  53.
 Defaulting to unpruned grid for atomic number  53.
 Defaulting to unpruned grid for atomic number  53.
 Defaulting to unpruned grid for atomic number  53.
 Inv3:  Mode=1 IEnd=     3115083.
 Iteration    1 A*A^-1 deviation from unit magnitude is 3.77D-15 for    769.
 Iteration    1 A*A^-1 deviation from orthogonality  is 2.52D-15 for    582     51.
 Iteration    1 A^-1*A deviation from unit magnitude is 3.89D-15 for    794.
 Iteration    1 A^-1*A deviation from orthogonality  is 2.29D-15 for    531    392.
 Error on total polarization charges =  0.02192
 SCF Done:  E(RB3LYP) =  -107.891513867     A.U. after    9 cycles
            NFock=  9  Conv=0.98D-08     -V/T= 2.0876
 DoSCS=F DFT=T ScalE2(SS,OS)=  1.000000  1.000000
 Range of M.O.s used for correlation:     1    59
 NBasis=    59 NAE=    13 NBE=    13 NFC=     0 NFV=     0
 NROrb=     59 NOA=    13 NOB=    13 NVA=    46 NVB=    46
 Symmetrizing basis deriv contribution to polar:
 IMax=3 JMax=2 DiffMx= 0.00D+00
   1 Symmetry operations used in ECPInt.
 ECPInt:  NShTT=     406 NPrTT=    1771 LenC2=     407 LenP2D=    1540.
 LDataN:  DoStor=T MaxTD1= 7 Len=  274
 D1PCM: PCM CHGder 1st derivatives, ID1Alg=3 FixD1E=F DoIter=F DoCFld=F I1PDM=0.
 Calling FoFJK, ICntrl=      2147 FMM=F ISym2X=0 I1Cent= 0 IOpClX= 0 NMat=1 NMatS=1 NMatT=0.
 Defaulting to unpruned grid for atomic number  53.
 Defaulting to unpruned grid for atomic number  53.
 Defaulting to unpruned grid for atomic number  53.
 Defaulting to unpruned grid for atomic number  53.
 Defaulting to unpruned grid for atomic number  53.
 Defaulting to unpruned grid for atomic number  53.
 Defaulting to unpruned grid for atomic number  53.
 Defaulting to unpruned grid for atomic number  53.
 -------------------------------------------------------------------
 Center     Atomic                   Forces (Hartrees/Bohr)
 Number     Number              X              Y              Z
 -------------------------------------------------------------------
      1        1           0.000513829    0.000028175    0.000019389
      2        1           0.000520193    0.000002833   -0.000031035
      3        1           0.000510130   -0.000029836    0.000015695
      4        1          -0.000717091    0.001146572    0.000879721
      5        1          -0.000720235    0.000187722   -0.001433907
      6        1          -0.000716384   -0.001325157    0.000551025
      7        7           0.005391601   -0.000000223   -0.000004029
      8        6          -0.011548916   -0.000015255    0.000000480
      9       53           0.006766873    0.000005170    0.000002661
 -------------------------------------------------------------------
 Cartesian Forces:  Max     0.011548916 RMS     0.002833801
 IRC-IRC-IRC-IRC-IRC-IRC-IRC-IRC-IRC-IRC-IRC-IRC-IRC-IRC-IRC-IRC-IRC-IRC
 Pt  2 Step number   1 out of a maximum of  20
 Point Number:   2          Path Number:   1
   CHANGE IN THE REACTION COORDINATE =    0.43562
   NET REACTION COORDINATE UP TO THIS POINT =    0.87208
  # OF POINTS ALONG THE PATH =   2
  # OF STEPS =   1

 Calculating another point on the path.
 IRC-IRC-IRC-IRC-IRC-IRC-IRC-IRC-IRC-IRC-IRC-IRC-IRC-IRC-IRC-IRC-IRC-IRC
                          Input orientation:                          
 ---------------------------------------------------------------------
 Center     Atomic      Atomic             Coordinates (Angstroms)
 Number     Number       Type             X           Y           Z
 ---------------------------------------------------------------------
      1          1           0        4.478746    0.752770    0.575170
      2          1           0        4.479746    0.121050   -0.939289
      3          1           0        4.478043   -0.874605    0.364989
      4          1           0        1.845888   -0.840697   -0.644446
      5          1           0        1.845940   -0.137574    1.050322
      6          1           0        1.845724    0.978674   -0.406002
      7          7           0        4.103957   -0.000037   -0.000041
      8          6           0        1.631502    0.000138   -0.000045
      9         53           0       -0.757827   -0.000006    0.000003
 ---------------------------------------------------------------------
                    Distance matrix (angstroms):
                    1          2          3          4          5
     1  H    0.000000
     2  H    1.640931   0.000000
     3  H    1.640892   1.640876   0.000000
     4  H    3.310369   2.819414   2.819282   0.000000
     5  H    2.819602   3.310948   2.817955   1.834835   0.000000
     6  H    2.818960   2.820990   3.310313   1.834929   1.834909
     7  N    1.018848   1.018856   1.018851   2.494161   2.494157
     8  C    3.000688   3.001549   3.000204   1.080841   1.080843
     9  I    5.321578   5.322509   5.320947   2.810945   2.810996
                    6          7          8          9
     6  H    0.000000
     7  N    2.494452   0.000000
     8  C    1.080844   2.472455   0.000000
     9  I    2.810896   4.861784   2.389329   0.000000
 Symmetry turned off by external request.
 Stoichiometry    CH6IN
 Framework group  C1[X(CH6IN)]
 Deg. of freedom    21
 Full point group                 C1      NOp   1
 Rotational constants (GHZ):          82.7568941           1.2187414           1.2187410
 Basis read from rwf:  (5D, 7F)
 Pseudo-potential data read from rwf file.
    59 basis functions,   107 primitive gaussians,    61 cartesian basis functions
    13 alpha electrons       13 beta electrons
       nuclear repulsion energy        60.4538645823 Hartrees.
 NAtoms=    9 NActive=    9 NUniq=    9 SFac= 1.00D+00 NAtFMM=   60 NAOKFM=F Big=F
 Integral buffers will be    131072 words long.
 Raffenetti 2 integral format.
 Two-electron integral symmetry is turned off.
 Nuclear repulsion after empirical dispersion term =       60.4449054603 Hartrees.
 Force inversion solution in PCM.
 ------------------------------------------------------------------------------
 Polarizable Continuum Model (PCM)
 =================================
 Model                : PCM.
 Atomic radii         : UFF (Universal Force Field).
 Polarization charges : Total charges.
 Charge compensation  : None.
 Solution method      : Matrix inversion.
 Cavity type          : Scaled VdW (van der Waals Surface) (Alpha=1.100).
 Cavity algorithm     : GePol (No added spheres)
                        Default sphere list used, NSphG=    9.
                        Lebedev-Laikov grids with approx.  5.0 points / Ang**2.
                        Smoothing algorithm: York/Karplus (Gamma=1.0000).
                        Polarization charges: spherical gaussians, with
                                              point-specific exponents (IZeta= 3).
                        Self-potential: point-specific (ISelfS= 7).
                        Self-field    : sphere-specific E.n sum rule (ISelfD= 2).
 1st derivatives      : Analytical E(r).r(x)/FMM algorithm (CHGder, D1EAlg=3).
                        Cavity 1st derivative terms included.
 Solvent              : Water, Eps=  78.355300 Eps(inf)=   1.777849
 ------------------------------------------------------------------------------
 Spheres list:
 ISph  on   Nord     Re0    Alpha      Xe            Ye            Ze
    1   H      1    1.4430  1.100      4.478746      0.752770      0.575170
    2   H      2    1.4430  1.100      4.479746      0.121050     -0.939289
    3   H      3    1.4430  1.100      4.478043     -0.874605      0.364989
    4   H      4    1.4430  1.100      1.845888     -0.840697     -0.644446
    5   H      5    1.4430  1.100      1.845940     -0.137574      1.050322
    6   H      6    1.4430  1.100      1.845724      0.978674     -0.406002
    7   N      7    1.8300  1.100      4.103957     -0.000037     -0.000041
    8   C      8    1.9255  1.100      1.631502      0.000138     -0.000045
    9   I      9    2.2500  1.100     -0.757827     -0.000006      0.000003
 ------------------------------------------------------------------------------
 One-electron integrals computed using PRISM.
   1 Symmetry operations used in ECPInt.
 ECPInt:  NShTT=     406 NPrTT=    1771 LenC2=     407 LenP2D=    1534.
 LDataN:  DoStor=T MaxTD1= 6 Len=  172
 NBasis=    59 RedAO= T EigKep=  1.41D-02  NBF=    59
 NBsUse=    59 1.00D-06 EigRej= -1.00D+00 NBFU=    59
 Defaulting to unpruned grid for atomic number  53.
 Initial guess from the checkpoint file:  "example.chk"
 B after Tr=    -0.000434   -0.000001    0.000001
         Rot=    1.000000    0.000020    0.000002    0.000001 Ang=   0.00 deg.
 ExpMin= 1.09D-02 ExpMax= 4.17D+03 ExpMxC= 6.27D+02 IAcc=3 IRadAn=         5 AccDes= 0.00D+00
 Harris functional with IExCor=  402 and IRadAn=       5 diagonalized for initial guess.
 HarFok:  IExCor=  402 AccDes= 0.00D+00 IRadAn=         5 IDoV= 1 UseB2=F ITyADJ=14
 ICtDFT=  3500011 ScaDFX=  1.000000  1.000000  1.000000  1.000000
 Defaulting to unpruned grid for atomic number  53.
 FoFCou: FMM=F IPFlag=           0 FMFlag=      100000 FMFlg1=           0
         NFxFlg=           0 DoJE=T BraDBF=F KetDBF=T FulRan=T
         wScrn=  0.000000 ICntrl=       500 IOpCl=  0 I1Cent=   200000004 NGrid=           0
         NMat0=    1 NMatS0=      1 NMatT0=    0 NMatD0=    1 NMtDS0=    0 NMtDT0=    0
 Symmetry not used in FoFCou.
 Keep R1 ints in memory in canonical form, NReq=8649263.
 Requested convergence on RMS density matrix=1.00D-08 within 128 cycles.
 Requested convergence on MAX density matrix=1.00D-06.
 Requested convergence on             energy=1.00D-06.
 No special actions if energy rises.
 Defaulting to unpruned grid for atomic number  53.
 Defaulting to unpruned grid for atomic number  53.
 Defaulting to unpruned grid for atomic number  53.
 Defaulting to unpruned grid for atomic number  53.
 Defaulting to unpruned grid for atomic number  53.
 Defaulting to unpruned grid for atomic number  53.
 Defaulting to unpruned grid for atomic number  53.
 Defaulting to unpruned grid for atomic number  53.
 Inv3:  Mode=1 IEnd=     3096768.
 Iteration    1 A*A^-1 deviation from unit magnitude is 4.00D-15 for    783.
 Iteration    1 A*A^-1 deviation from orthogonality  is 2.41D-15 for    486     71.
 Iteration    1 A^-1*A deviation from unit magnitude is 3.44D-15 for    546.
 Iteration    1 A^-1*A deviation from orthogonality  is 1.53D-15 for    526     82.
 Error on total polarization charges =  0.02122
 SCF Done:  E(RB3LYP) =  -107.893410443     A.U. after    9 cycles
            NFock=  9  Conv=0.71D-08     -V/T= 2.0874
 DoSCS=F DFT=T ScalE2(SS,OS)=  1.000000  1.000000
 Range of M.O.s used for correlation:     1    59
 NBasis=    59 NAE=    13 NBE=    13 NFC=     0 NFV=     0
 NROrb=     59 NOA=    13 NOB=    13 NVA=    46 NVB=    46
 Symmetrizing basis deriv contribution to polar:
 IMax=3 JMax=2 DiffMx= 0.00D+00
   1 Symmetry operations used in ECPInt.
 ECPInt:  NShTT=     406 NPrTT=    1771 LenC2=     407 LenP2D=    1534.
 LDataN:  DoStor=T MaxTD1= 7 Len=  274
 D1PCM: PCM CHGder 1st derivatives, ID1Alg=3 FixD1E=F DoIter=F DoCFld=F I1PDM=0.
 Calling FoFJK, ICntrl=      2147 FMM=F ISym2X=0 I1Cent= 0 IOpClX= 0 NMat=1 NMatS=1 NMatT=0.
 Defaulting to unpruned grid for atomic number  53.
 Defaulting to unpruned grid for atomic number  53.
 Defaulting to unpruned grid for atomic number  53.
 Defaulting to unpruned grid for atomic number  53.
 Defaulting to unpruned grid for atomic number  53.
 Defaulting to unpruned grid for atomic number  53.
 Defaulting to unpruned grid for atomic number  53.
 Defaulting to unpruned grid for atomic number  53.
 -------------------------------------------------------------------
 Center     Atomic                   Forces (Hartrees/Bohr)
 Number     Number              X              Y              Z
 -------------------------------------------------------------------
      1        1           0.000462120    0.000007284    0.000006653
      2        1           0.000465655   -0.000003236   -0.000005282
      3        1           0.000457265   -0.000011177    0.000008586
      4        1          -0.000639738    0.000608125    0.000465919
      5        1          -0.000646707    0.000097931   -0.000759448
      6        1          -0.000642531   -0.000709263    0.000293516
      7        7           0.006581401    0.000009595   -0.000010019
      8        6          -0.013282388   -0.000003945   -0.000004699
      9       53           0.007244923    0.000004687    0.000004774
 -------------------------------------------------------------------
 Cartesian Forces:  Max     0.013282388 RMS     0.003196459
 IRC-IRC-IRC-IRC-IRC-IRC-IRC-IRC-IRC-IRC-IRC-IRC-IRC-IRC-IRC-IRC-IRC-IRC
 Pt  3 Step number   1 out of a maximum of  20
 Point Number:   3          Path Number:   1
   CHANGE IN THE REACTION COORDINATE =    0.43513
   NET REACTION COORDINATE UP TO THIS POINT =    1.30720
  # OF POINTS ALONG THE PATH =   3
  # OF STEPS =   1

 Calculating another point on the path.
 IRC-IRC-IRC-IRC-IRC-IRC-IRC-IRC-IRC-IRC-IRC-IRC-IRC-IRC-IRC-IRC-IRC-IRC
                          Input orientation:                          
 ---------------------------------------------------------------------
 Center     Atomic      Atomic             Coordinates (Angstroms)
 Number     Number       Type             X           Y           Z
 ---------------------------------------------------------------------
      1          1           0        4.505780    0.751742    0.574376
      2          1           0        4.507017    0.120707   -0.937929
      3          1           0        4.504743   -0.873430    0.364683
      4          1           0        1.825088   -0.835220   -0.640253
      5          1           0        1.824990   -0.136735    1.043440
      6          1           0        1.824823    0.972280   -0.403344
      7          7           0        4.127287   -0.000014   -0.000056
      8          6           0        1.573088    0.000117   -0.000064
      9         53           0       -0.755024   -0.000004    0.000005
 ---------------------------------------------------------------------
                    Distance matrix (angstroms):
                    1          2          3          4          5
     1  H    0.000000
     2  H    1.638680   0.000000
     3  H    1.638644   1.638630   0.000000
     4  H    3.343632   2.862717   2.862150   0.000000
     5  H    2.862874   3.344453   2.860857   1.822828   0.000000
     6  H    2.862185   2.864459   3.343423   1.822959   1.822936
     7  N    1.019003   1.019006   1.019000   2.531312   2.531432
     8  C    3.081493   3.082543   3.080702   1.082189   1.082166
     9  I    5.345192   5.346341   5.344250   2.786484   2.786382
                    6          7          8          9
     6  H    0.000000
     7  N    2.531667   0.000000
     8  C    1.082176   2.554199   0.000000
     9  I    2.786330   4.882311   2.328112   0.000000
 Symmetry turned off by external request.
 Stoichiometry    CH6IN
 Framework group  C1[X(CH6IN)]
 Deg. of freedom    21
 Full point group                 C1      NOp   1
 Rotational constants (GHZ):          83.4622062           1.2176241           1.2176235
 Basis read from rwf:  (5D, 7F)
 Pseudo-potential data read from rwf file.
    59 basis functions,   107 primitive gaussians,    61 cartesian basis functions
    13 alpha electrons       13 beta electrons
       nuclear repulsion energy        60.2380389520 Hartrees.
 NAtoms=    9 NActive=    9 NUniq=    9 SFac= 1.00D+00 NAtFMM=   60 NAOKFM=F Big=F
 Integral buffers will be    131072 words long.
 Raffenetti 2 integral format.
 Two-electron integral symmetry is turned off.
 Nuclear repulsion after empirical dispersion term =       60.2291476069 Hartrees.
 Force inversion solution in PCM.
 ------------------------------------------------------------------------------
 Polarizable Continuum Model (PCM)
 =================================
 Model                : PCM.
 Atomic radii         : UFF (Universal Force Field).
 Polarization charges : Total charges.
 Charge compensation  : None.
 Solution method      : Matrix inversion.
 Cavity type          : Scaled VdW (van der Waals Surface) (Alpha=1.100).
 Cavity algorithm     : GePol (No added spheres)
                        Default sphere list used, NSphG=    9.
                        Lebedev-Laikov grids with approx.  5.0 points / Ang**2.
                        Smoothing algorithm: York/Karplus (Gamma=1.0000).
                        Polarization charges: spherical gaussians, with
                                              point-specific exponents (IZeta= 3).
                        Self-potential: point-specific (ISelfS= 7).
                        Self-field    : sphere-specific E.n sum rule (ISelfD= 2).
 1st derivatives      : Analytical E(r).r(x)/FMM algorithm (CHGder, D1EAlg=3).
                        Cavity 1st derivative terms included.
 Solvent              : Water, Eps=  78.355300 Eps(inf)=   1.777849
 ------------------------------------------------------------------------------
 Spheres list:
 ISph  on   Nord     Re0    Alpha      Xe            Ye            Ze
    1   H      1    1.4430  1.100      4.505780      0.751742      0.574376
    2   H      2    1.4430  1.100      4.507017      0.120707     -0.937929
    3   H      3    1.4430  1.100      4.504743     -0.873430      0.364683
    4   H      4    1.4430  1.100      1.825088     -0.835220     -0.640253
    5   H      5    1.4430  1.100      1.824990     -0.136735      1.043440
    6   H      6    1.4430  1.100      1.824823      0.972280     -0.403344
    7   N      7    1.8300  1.100      4.127287     -0.000014     -0.000056
    8   C      8    1.9255  1.100      1.573088      0.000117     -0.000064
    9   I      9    2.2500  1.100     -0.755024     -0.000004      0.000005
 ------------------------------------------------------------------------------
 One-electron integrals computed using PRISM.
   1 Symmetry operations used in ECPInt.
 ECPInt:  NShTT=     406 NPrTT=    1771 LenC2=     407 LenP2D=    1531.
 LDataN:  DoStor=T MaxTD1= 6 Len=  172
 NBasis=    59 RedAO= T EigKep=  1.42D-02  NBF=    59
 NBsUse=    59 1.00D-06 EigRej= -1.00D+00 NBFU=    59
 Defaulting to unpruned grid for atomic number  53.
 Initial guess from the checkpoint file:  "example.chk"
 B after Tr=    -0.000531   -0.000003    0.000001
         Rot=    1.000000    0.000021    0.000002    0.000002 Ang=   0.00 deg.
 ExpMin= 1.09D-02 ExpMax= 4.17D+03 ExpMxC= 6.27D+02 IAcc=3 IRadAn=         5 AccDes= 0.00D+00
 Harris functional with IExCor=  402 and IRadAn=       5 diagonalized for initial guess.
 HarFok:  IExCor=  402 AccDes= 0.00D+00 IRadAn=         5 IDoV= 1 UseB2=F ITyADJ=14
 ICtDFT=  3500011 ScaDFX=  1.000000  1.000000  1.000000  1.000000
 Defaulting to unpruned grid for atomic number  53.
 FoFCou: FMM=F IPFlag=           0 FMFlag=      100000 FMFlg1=           0
         NFxFlg=           0 DoJE=T BraDBF=F KetDBF=T FulRan=T
         wScrn=  0.000000 ICntrl=       500 IOpCl=  0 I1Cent=   200000004 NGrid=           0
         NMat0=    1 NMatS0=      1 NMatT0=    0 NMatD0=    1 NMtDS0=    0 NMtDT0=    0
 Symmetry not used in FoFCou.
 Keep R1 ints in memory in canonical form, NReq=8649263.
 Requested convergence on RMS density matrix=1.00D-08 within 128 cycles.
 Requested convergence on MAX density matrix=1.00D-06.
 Requested convergence on             energy=1.00D-06.
 No special actions if energy rises.
 Defaulting to unpruned grid for atomic number  53.
 Defaulting to unpruned grid for atomic number  53.
 Defaulting to unpruned grid for atomic number  53.
 Defaulting to unpruned grid for atomic number  53.
 Defaulting to unpruned grid for atomic number  53.
 Defaulting to unpruned grid for atomic number  53.
 Defaulting to unpruned grid for atomic number  53.
 Defaulting to unpruned grid for atomic number  53.
 Inv3:  Mode=1 IEnd=     3078507.
 Iteration    1 A*A^-1 deviation from unit magnitude is 4.44D-15 for    523.
 Iteration    1 A*A^-1 deviation from orthogonality  is 2.15D-15 for    579    373.
 Iteration    1 A^-1*A deviation from unit magnitude is 3.77D-15 for    640.
 Iteration    1 A^-1*A deviation from orthogonality  is 1.35D-15 for    282    255.
 Error on total polarization charges =  0.02063
 SCF Done:  E(RB3LYP) =  -107.895313586     A.U. after    9 cycles
            NFock=  9  Conv=0.59D-08     -V/T= 2.0873
 DoSCS=F DFT=T ScalE2(SS,OS)=  1.000000  1.000000
 Range of M.O.s used for correlation:     1    59
 NBasis=    59 NAE=    13 NBE=    13 NFC=     0 NFV=     0
 NROrb=     59 NOA=    13 NOB=    13 NVA=    46 NVB=    46
 Symmetrizing basis deriv contribution to polar:
 IMax=3 JMax=2 DiffMx= 0.00D+00
   1 Symmetry operations used in ECPInt.
 ECPInt:  NShTT=     406 NPrTT=    1771 LenC2=     407 LenP2D=    1531.
 LDataN:  DoStor=T MaxTD1= 7 Len=  274
 D1PCM: PCM CHGder 1st derivatives, ID1Alg=3 FixD1E=F DoIter=F DoCFld=F I1PDM=0.
 Calling FoFJK, ICntrl=      2147 FMM=F ISym2X=0 I1Cent= 0 IOpClX= 0 NMat=1 NMatS=1 NMatT=0.
 Defaulting to unpruned grid for atomic number  53.
 Defaulting to unpruned grid for atomic number  53.
 Defaulting to unpruned grid for atomic number  53.
 Defaulting to unpruned grid for atomic number  53.
 Defaulting to unpruned grid for atomic number  53.
 Defaulting to unpruned grid for atomic number  53.
 Defaulting to unpruned grid for atomic number  53.
 Defaulting to unpruned grid for atomic number  53.
 -------------------------------------------------------------------
 Center     Atomic                   Forces (Hartrees/Bohr)
 Number     Number              X              Y              Z
 -------------------------------------------------------------------
      1        1           0.000510693    0.000021024    0.000017135
      2        1           0.000512719   -0.000001170   -0.000025600
      3        1           0.000501756   -0.000029960    0.000016155
      4        1          -0.000906575    0.000612296    0.000469238
      5        1          -0.000899861    0.000099984   -0.000749877
      6        1          -0.000897428   -0.000705484    0.000290029
      7        7           0.006618088    0.000014986   -0.000009490
      8        6          -0.011119871   -0.000012846   -0.000011575
      9       53           0.005680480    0.000001169    0.000003985
 -------------------------------------------------------------------
 Cartesian Forces:  Max     0.011119871 RMS     0.002753337
 IRC-IRC-IRC-IRC-IRC-IRC-IRC-IRC-IRC-IRC-IRC-IRC-IRC-IRC-IRC-IRC-IRC-IRC
 Pt  4 Step number   1 out of a maximum of  20
 Point Number:   4          Path Number:   1
   CHANGE IN THE REACTION COORDINATE =    0.43602
   NET REACTION COORDINATE UP TO THIS POINT =    1.74323
  # OF POINTS ALONG THE PATH =   4
  # OF STEPS =   1

 Calculating another point on the path.
 IRC-IRC-IRC-IRC-IRC-IRC-IRC-IRC-IRC-IRC-IRC-IRC-IRC-IRC-IRC-IRC-IRC-IRC
                          Input orientation:                          
 ---------------------------------------------------------------------
 Center     Atomic      Atomic             Coordinates (Angstroms)
 Number     Number       Type             X           Y           Z
 ---------------------------------------------------------------------
      1          1           0        4.541117    0.749972    0.573066
      2          1           0        4.542687    0.120134   -0.935673
      3          1           0        4.539398   -0.871503    0.364116
      4          1           0        1.793571   -0.829412   -0.635717
      5          1           0        1.793595   -0.135738    1.036146
      6          1           0        1.793430    0.965445   -0.400591
      7          7           0        4.155232    0.000029   -0.000094
      8          6           0        1.519232    0.000102   -0.000075
      9         53           0       -0.753105   -0.000004    0.000007
 ---------------------------------------------------------------------
                    Distance matrix (angstroms):
                    1          2          3          4          5
     1  H    0.000000
     2  H    1.634929   0.000000
     3  H    1.634884   1.634872   0.000000
     4  H    3.391847   2.923911   2.922500   0.000000
     5  H    2.923663   3.392794   2.921030   1.810057   0.000000
     6  H    2.923050   2.925624   3.391091   1.810193   1.810197
     7  N    1.019723   1.019733   1.019706   2.582525   2.582549
     8  C    3.165847   3.167181   3.164449   1.080461   1.080500
     9  I    5.377699   5.379158   5.376121   2.752747   2.752760
                    6          7          8          9
     6  H    0.000000
     7  N    2.582738   0.000000
     8  C    1.080502   2.636001   0.000000
     9  I    2.752709   4.908337   2.272337   0.000000
 Symmetry turned off by external request.
 Stoichiometry    CH6IN
 Framework group  C1[X(CH6IN)]
 Deg. of freedom    21
 Full point group                 C1      NOp   1
 Rotational constants (GHZ):          84.2850052           1.2133407           1.2133401
 Basis read from rwf:  (5D, 7F)
 Pseudo-potential data read from rwf file.
    59 basis functions,   107 primitive gaussians,    61 cartesian basis functions
    13 alpha electrons       13 beta electrons
       nuclear repulsion energy        60.0259148126 Hartrees.
 NAtoms=    9 NActive=    9 NUniq=    9 SFac= 1.00D+00 NAtFMM=   60 NAOKFM=F Big=F
 Integral buffers will be    131072 words long.
 Raffenetti 2 integral format.
 Two-electron integral symmetry is turned off.
 Nuclear repulsion after empirical dispersion term =       60.0171083981 Hartrees.
 Force inversion solution in PCM.
 ------------------------------------------------------------------------------
 Polarizable Continuum Model (PCM)
 =================================
 Model                : PCM.
 Atomic radii         : UFF (Universal Force Field).
 Polarization charges : Total charges.
 Charge compensation  : None.
 Solution method      : Matrix inversion.
 Cavity type          : Scaled VdW (van der Waals Surface) (Alpha=1.100).
 Cavity algorithm     : GePol (No added spheres)
                        Default sphere list used, NSphG=    9.
                        Lebedev-Laikov grids with approx.  5.0 points / Ang**2.
                        Smoothing algorithm: York/Karplus (Gamma=1.0000).
                        Polarization charges: spherical gaussians, with
                                              point-specific exponents (IZeta= 3).
                        Self-potential: point-specific (ISelfS= 7).
                        Self-field    : sphere-specific E.n sum rule (ISelfD= 2).
 1st derivatives      : Analytical E(r).r(x)/FMM algorithm (CHGder, D1EAlg=3).
                        Cavity 1st derivative terms included.
 Solvent              : Water, Eps=  78.355300 Eps(inf)=   1.777849
 ------------------------------------------------------------------------------
 Spheres list:
 ISph  on   Nord     Re0    Alpha      Xe            Ye            Ze
    1   H      1    1.4430  1.100      4.541117      0.749972      0.573066
    2   H      2    1.4430  1.100      4.542687      0.120134     -0.935673
    3   H      3    1.4430  1.100      4.539398     -0.871503      0.364116
    4   H      4    1.4430  1.100      1.793571     -0.829412     -0.635717
    5   H      5    1.4430  1.100      1.793595     -0.135738      1.036146
    6   H      6    1.4430  1.100      1.793430      0.965445     -0.400591
    7   N      7    1.8300  1.100      4.155232      0.000029     -0.000094
    8   C      8    1.9255  1.100      1.519232      0.000102     -0.000075
    9   I      9    2.2500  1.100     -0.753105     -0.000004      0.000007
 ------------------------------------------------------------------------------
 One-electron integrals computed using PRISM.
   1 Symmetry operations used in ECPInt.
 ECPInt:  NShTT=     406 NPrTT=    1771 LenC2=     407 LenP2D=    1528.
 LDataN:  DoStor=T MaxTD1= 6 Len=  172
 NBasis=    59 RedAO= T EigKep=  1.43D-02  NBF=    59
 NBsUse=    59 1.00D-06 EigRej= -1.00D+00 NBFU=    59
 Defaulting to unpruned grid for atomic number  53.
 Initial guess from the checkpoint file:  "example.chk"
 B after Tr=    -0.000380   -0.000003    0.000003
         Rot=    1.000000    0.000053    0.000002    0.000003 Ang=   0.01 deg.
 ExpMin= 1.09D-02 ExpMax= 4.17D+03 ExpMxC= 6.27D+02 IAcc=3 IRadAn=         5 AccDes= 0.00D+00
 Harris functional with IExCor=  402 and IRadAn=       5 diagonalized for initial guess.
 HarFok:  IExCor=  402 AccDes= 0.00D+00 IRadAn=         5 IDoV= 1 UseB2=F ITyADJ=14
 ICtDFT=  3500011 ScaDFX=  1.000000  1.000000  1.000000  1.000000
 Defaulting to unpruned grid for atomic number  53.
 FoFCou: FMM=F IPFlag=           0 FMFlag=      100000 FMFlg1=           0
         NFxFlg=           0 DoJE=T BraDBF=F KetDBF=T FulRan=T
         wScrn=  0.000000 ICntrl=       500 IOpCl=  0 I1Cent=   200000004 NGrid=           0
         NMat0=    1 NMatS0=      1 NMatT0=    0 NMatD0=    1 NMtDS0=    0 NMtDT0=    0
 Symmetry not used in FoFCou.
 Keep R1 ints in memory in canonical form, NReq=8649263.
 Requested convergence on RMS density matrix=1.00D-08 within 128 cycles.
 Requested convergence on MAX density matrix=1.00D-06.
 Requested convergence on             energy=1.00D-06.
 No special actions if energy rises.
 Defaulting to unpruned grid for atomic number  53.
 Defaulting to unpruned grid for atomic number  53.
 Defaulting to unpruned grid for atomic number  53.
 Defaulting to unpruned grid for atomic number  53.
 Defaulting to unpruned grid for atomic number  53.
 Defaulting to unpruned grid for atomic number  53.
 Defaulting to unpruned grid for atomic number  53.
 Defaulting to unpruned grid for atomic number  53.
 Inv3:  Mode=1 IEnd=     3158028.
 Iteration    1 A*A^-1 deviation from unit magnitude is 3.77D-15 for    798.
 Iteration    1 A*A^-1 deviation from orthogonality  is 2.03D-15 for    548    438.
 Iteration    1 A^-1*A deviation from unit magnitude is 3.66D-15 for     16.
 Iteration    1 A^-1*A deviation from orthogonality  is 2.08D-15 for    934    664.
 Error on total polarization charges =  0.02017
 SCF Done:  E(RB3LYP) =  -107.896847815     A.U. after    9 cycles
            NFock=  9  Conv=0.38D-08     -V/T= 2.0870
 DoSCS=F DFT=T ScalE2(SS,OS)=  1.000000  1.000000
 Range of M.O.s used for correlation:     1    59
 NBasis=    59 NAE=    13 NBE=    13 NFC=     0 NFV=     0
 NROrb=     59 NOA=    13 NOB=    13 NVA=    46 NVB=    46
 Symmetrizing basis deriv contribution to polar:
 IMax=3 JMax=2 DiffMx= 0.00D+00
   1 Symmetry operations used in ECPInt.
 ECPInt:  NShTT=     406 NPrTT=    1771 LenC2=     407 LenP2D=    1528.
 LDataN:  DoStor=T MaxTD1= 7 Len=  274
 D1PCM: PCM CHGder 1st derivatives, ID1Alg=3 FixD1E=F DoIter=F DoCFld=F I1PDM=0.
 Calling FoFJK, ICntrl=      2147 FMM=F ISym2X=0 I1Cent= 0 IOpClX= 0 NMat=1 NMatS=1 NMatT=0.
 Defaulting to unpruned grid for atomic number  53.
 Defaulting to unpruned grid for atomic number  53.
 Defaulting to unpruned grid for atomic number  53.
 Defaulting to unpruned grid for atomic number  53.
 Defaulting to unpruned grid for atomic number  53.
 Defaulting to unpruned grid for atomic number  53.
 Defaulting to unpruned grid for atomic number  53.
 Defaulting to unpruned grid for atomic number  53.
 -------------------------------------------------------------------
 Center     Atomic                   Forces (Hartrees/Bohr)
 Number     Number              X              Y              Z
 -------------------------------------------------------------------
      1        1           0.000095979   -0.000035829   -0.000026789
      2        1           0.000095467   -0.000009947    0.000050964
      3        1           0.000090230    0.000027648   -0.000006427
      4        1           0.000120462   -0.000785353   -0.000606958
      5        1           0.000123753   -0.000118822    0.000961395
      6        1           0.000129285    0.000891365   -0.000380361
      7        7           0.006970455    0.000018124   -0.000011937
      8        6          -0.008806720    0.000013723    0.000013208
      9       53           0.001181090   -0.000000909    0.000006905
 -------------------------------------------------------------------
 Cartesian Forces:  Max     0.008806720 RMS     0.002198339
 IRC-IRC-IRC-IRC-IRC-IRC-IRC-IRC-IRC-IRC-IRC-IRC-IRC-IRC-IRC-IRC-IRC-IRC
 Pt  5 Step number   1 out of a maximum of  20
 Point Number:   5          Path Number:   1
   CHANGE IN THE REACTION COORDINATE =    0.43557
   NET REACTION COORDINATE UP TO THIS POINT =    2.17879
  # OF POINTS ALONG THE PATH =   5
  # OF STEPS =   1

 Calculating another point on the path.
 IRC-IRC-IRC-IRC-IRC-IRC-IRC-IRC-IRC-IRC-IRC-IRC-IRC-IRC-IRC-IRC-IRC-IRC
                          Input orientation:                          
 ---------------------------------------------------------------------
 Center     Atomic      Atomic             Coordinates (Angstroms)
 Number     Number       Type             X           Y           Z
 ---------------------------------------------------------------------
      1          1           0        4.572940    0.750595    0.573626
      2          1           0        4.574481    0.119984   -0.936488
      3          1           0        4.570489   -0.872483    0.364687
      4          1           0        1.781841   -0.826223   -0.632835
      5          1           0        1.781988   -0.134615    1.031824
      6          1           0        1.781972    0.961218   -0.399532
      7          7           0        4.191189    0.000038   -0.000078
      8          6           0        1.468285    0.000126   -0.000144
      9         53           0       -0.752731   -0.000004    0.000012
 ---------------------------------------------------------------------
                    Distance matrix (angstroms):
                    1          2          3          4          5
     1  H    0.000000
     2  H    1.636495   0.000000
     3  H    1.636473   1.636478   0.000000
     4  H    3.425221   2.964178   2.962051   0.000000
     5  H    2.963605   3.425944   2.960617   1.802612   0.000000
     6  H    2.963259   2.965486   3.423787   1.802602   1.802673
     7  N    1.018924   1.018904   1.018928   2.624508   2.624347
     8  C    3.245196   3.246469   3.243180   1.086954   1.086979
     9  I    5.408808   5.410233   5.406558   2.739925   2.739992
                    6          7          8          9
     6  H    0.000000
     7  N    2.624453   0.000000
     8  C    1.087017   2.722904   0.000000
     9  I    2.740128   4.943919   2.221016   0.000000
 Symmetry turned off by external request.
 Stoichiometry    CH6IN
 Framework group  C1[X(CH6IN)]
 Deg. of freedom    21
 Full point group                 C1      NOp   1
 Rotational constants (GHZ):          84.5974950           1.2045551           1.2045547
 Basis read from rwf:  (5D, 7F)
 Pseudo-potential data read from rwf file.
    59 basis functions,   107 primitive gaussians,    61 cartesian basis functions
    13 alpha electrons       13 beta electrons
       nuclear repulsion energy        59.7492722102 Hartrees.
 NAtoms=    9 NActive=    9 NUniq=    9 SFac= 1.00D+00 NAtFMM=   60 NAOKFM=F Big=F
 Integral buffers will be    131072 words long.
 Raffenetti 2 integral format.
 Two-electron integral symmetry is turned off.
 Nuclear repulsion after empirical dispersion term =       59.7405550447 Hartrees.
 Force inversion solution in PCM.
 ------------------------------------------------------------------------------
 Polarizable Continuum Model (PCM)
 =================================
 Model                : PCM.
 Atomic radii         : UFF (Universal Force Field).
 Polarization charges : Total charges.
 Charge compensation  : None.
 Solution method      : Matrix inversion.
 Cavity type          : Scaled VdW (van der Waals Surface) (Alpha=1.100).
 Cavity algorithm     : GePol (No added spheres)
                        Default sphere list used, NSphG=    9.
                        Lebedev-Laikov grids with approx.  5.0 points / Ang**2.
[...]
 Symmetry turned off by external request.
 Stoichiometry    CH6IN
 Framework group  C1[X(CH6IN)]
 Deg. of freedom    21
 Full point group                 C1      NOp   1
 Rotational constants (GHZ):          83.4045840           0.8760928           0.8760010
 Basis read from rwf:  (5D, 7F)
 Pseudo-potential data read from rwf file.
    59 basis functions,   107 primitive gaussians,    61 cartesian basis functions
    13 alpha electrons       13 beta electrons
       nuclear repulsion energy        63.3651539353 Hartrees.
 NAtoms=    9 NActive=    9 NUniq=    9 SFac= 1.00D+00 NAtFMM=   60 NAOKFM=F Big=F
 Integral buffers will be    131072 words long.
 Raffenetti 2 integral format.
 Two-electron integral symmetry is turned off.
 Nuclear repulsion after empirical dispersion term =       63.3575279520 Hartrees.
 Force inversion solution in PCM.
 ------------------------------------------------------------------------------
 Polarizable Continuum Model (PCM)
 =================================
 Model                : PCM.
 Atomic radii         : UFF (Universal Force Field).
 Polarization charges : Total charges.
 Charge compensation  : None.
 Solution method      : Matrix inversion.
 Cavity type          : Scaled VdW (van der Waals Surface) (Alpha=1.100).
 Cavity algorithm     : GePol (No added spheres)
                        Default sphere list used, NSphG=    9.
                        Lebedev-Laikov grids with approx.  5.0 points / Ang**2.
                        Smoothing algorithm: York/Karplus (Gamma=1.0000).
                        Polarization charges: spherical gaussians, with
                                              point-specific exponents (IZeta= 3).
                        Self-potential: point-specific (ISelfS= 7).
                        Self-field    : sphere-specific E.n sum rule (ISelfD= 2).
 1st derivatives      : Analytical E(r).r(x)/FMM algorithm (CHGder, D1EAlg=3).
                        Cavity 1st derivative terms included.
 Solvent              : Water, Eps=  78.355300 Eps(inf)=   1.777849
 ------------------------------------------------------------------------------
 Spheres list:
 ISph  on   Nord     Re0    Alpha      Xe            Ye            Ze
    1   H      1    1.4430  1.100      4.769715      0.820958      0.496778
    2   H      2    1.4430  1.100      4.837662     -0.054496     -0.905073
    3   H      3    1.4430  1.100      4.748528     -0.831568      0.552275
    4   H      4    1.4430  1.100      2.581472     -0.915438     -0.556037
    5   H      5    1.4430  1.100      2.508187      0.041223      0.958407
    6   H      6    1.4430  1.100      2.604374      0.876949     -0.624596
    7   N      7    1.8300  1.100      4.408419     -0.017616      0.026696
    8   C      8    1.9255  1.100      2.905754     -0.002557     -0.055198
    9   I      9    2.2500  1.100     -0.936348      0.002681      0.002895
 ------------------------------------------------------------------------------
 One-electron integrals computed using PRISM.
   1 Symmetry operations used in ECPInt.
 ECPInt:  NShTT=     406 NPrTT=    1771 LenC2=     407 LenP2D=    1546.
 LDataN:  DoStor=T MaxTD1= 6 Len=  172
 NBasis=    59 RedAO= T EigKep=  1.01D-02  NBF=    59
 NBsUse=    59 1.00D-06 EigRej= -1.00D+00 NBFU=    59
 Defaulting to unpruned grid for atomic number  53.
 Initial guess from the checkpoint file:  "example.chk"
 B after Tr=    -0.003328   -0.000116    0.000197
         Rot=    0.999458    0.032906   -0.000495    0.000388 Ang=   3.77 deg.
 ExpMin= 1.09D-02 ExpMax= 4.17D+03 ExpMxC= 6.27D+02 IAcc=3 IRadAn=         5 AccDes= 0.00D+00
 Harris functional with IExCor=  402 and IRadAn=       5 diagonalized for initial guess.
 HarFok:  IExCor=  402 AccDes= 0.00D+00 IRadAn=         5 IDoV= 1 UseB2=F ITyADJ=14
 ICtDFT=  3500011 ScaDFX=  1.000000  1.000000  1.000000  1.000000
 Defaulting to unpruned grid for atomic number  53.
 FoFCou: FMM=F IPFlag=           0 FMFlag=      100000 FMFlg1=           0
         NFxFlg=           0 DoJE=T BraDBF=F KetDBF=T FulRan=T
         wScrn=  0.000000 ICntrl=       500 IOpCl=  0 I1Cent=   200000004 NGrid=           0
         NMat0=    1 NMatS0=      1 NMatT0=    0 NMatD0=    1 NMtDS0=    0 NMtDT0=    0
 Symmetry not used in FoFCou.
 Keep R1 ints in memory in canonical form, NReq=8649263.
 Requested convergence on RMS density matrix=1.00D-08 within 128 cycles.
 Requested convergence on MAX density matrix=1.00D-06.
 Requested convergence on             energy=1.00D-06.
 No special actions if energy rises.
 Defaulting to unpruned grid for atomic number  53.
 Defaulting to unpruned grid for atomic number  53.
 Defaulting to unpruned grid for atomic number  53.
 Defaulting to unpruned grid for atomic number  53.
 Defaulting to unpruned grid for atomic number  53.
 Defaulting to unpruned grid for atomic number  53.
 Defaulting to unpruned grid for atomic number  53.
 Defaulting to unpruned grid for atomic number  53.
 Inv3:  Mode=1 IEnd=     3389907.
 Iteration    1 A*A^-1 deviation from unit magnitude is 3.89D-15 for     87.
 Iteration    1 A*A^-1 deviation from orthogonality  is 2.21D-15 for    477     81.
 Iteration    1 A^-1*A deviation from unit magnitude is 4.33D-15 for    877.
 Iteration    1 A^-1*A deviation from orthogonality  is 2.79D-15 for    541    112.
 Error on total polarization charges =  0.03421
 SCF Done:  E(RB3LYP) =  -107.939547535     A.U. after    8 cycles
            NFock=  8  Conv=0.46D-08     -V/T= 2.0882
 DoSCS=F DFT=T ScalE2(SS,OS)=  1.000000  1.000000
 Range of M.O.s used for correlation:     1    59
 NBasis=    59 NAE=    13 NBE=    13 NFC=     0 NFV=     0
 NROrb=     59 NOA=    13 NOB=    13 NVA=    46 NVB=    46
 Symmetrizing basis deriv contribution to polar:
 IMax=3 JMax=2 DiffMx= 0.00D+00
   1 Symmetry operations used in ECPInt.
 ECPInt:  NShTT=     406 NPrTT=    1771 LenC2=     407 LenP2D=    1546.
 LDataN:  DoStor=T MaxTD1= 7 Len=  274
 D1PCM: PCM CHGder 1st derivatives, ID1Alg=3 FixD1E=F DoIter=F DoCFld=F I1PDM=0.
 Calling FoFJK, ICntrl=      2147 FMM=F ISym2X=0 I1Cent= 0 IOpClX= 0 NMat=1 NMatS=1 NMatT=0.
 Defaulting to unpruned grid for atomic number  53.
 Defaulting to unpruned grid for atomic number  53.
 Defaulting to unpruned grid for atomic number  53.
 Defaulting to unpruned grid for atomic number  53.
 Defaulting to unpruned grid for atomic number  53.
 Defaulting to unpruned grid for atomic number  53.
 Defaulting to unpruned grid for atomic number  53.
 Defaulting to unpruned grid for atomic number  53.
 -------------------------------------------------------------------
 Center     Atomic                   Forces (Hartrees/Bohr)
 Number     Number              X              Y              Z
 -------------------------------------------------------------------
      1        1          -0.000470223   -0.001417512   -0.000868813
      2        1          -0.000373680    0.000165532    0.001293971
      3        1          -0.000298165    0.001259083   -0.000883527
      4        1           0.000503160    0.001562466    0.000834250
      5        1           0.000298487   -0.000109086   -0.001442717
      6        1           0.000228060   -0.001302655    0.000885445
      7        7           0.001320194   -0.000141506    0.000383817
      8        6          -0.001140695   -0.000021258   -0.000187047
      9       53          -0.000067139    0.000004935   -0.000015378
 -------------------------------------------------------------------
 Cartesian Forces:  Max     0.001562466 RMS     0.000830862
 IRC-IRC-IRC-IRC-IRC-IRC-IRC-IRC-IRC-IRC-IRC-IRC-IRC-IRC-IRC-IRC-IRC-IRC
 Pt 83 Step number   1 out of a maximum of  20
 Point Number:  33          Path Number:   2
   CHANGE IN THE REACTION COORDINATE =    0.41900
   NET REACTION COORDINATE UP TO THIS POINT =   13.47692
  # OF POINTS ALONG THE PATH =  83
  # OF STEPS =   1

 Calculating another point on the path.
 PES minimum detected within a second-order step.
 Calculation of REVERSE path complete.
 Reaction path calculation complete.
 
 Energies reported relative to the TS energy of        -107.889492
 --------------------------------------------------------------------------
    Summary of reaction path following
 --------------------------------------------------------------------------
                        Energy    RxCoord
   1                   -0.05006 -13.47692
   2                   -0.05006 -13.05793
   3                   -0.04996 -12.70273
   4                   -0.05001 -12.32949
   5                   -0.05002 -11.93061
   6                   -0.04995 -11.52422
   7                   -0.04988 -11.11007
   8                   -0.04975 -10.69928
   9                   -0.04969 -10.27619
  10                   -0.04953  -9.85725
  11                   -0.04849  -9.49580
  12                   -0.04896  -9.11570
  13                   -0.04906  -8.72357
  14                   -0.04842  -8.34462
  15                   -0.04865  -7.95146
  16                   -0.04838  -7.55808
  17                   -0.04786  -7.17291
  18                   -0.04776  -6.76336
  19                   -0.04692  -6.37688
  20                   -0.04668  -5.95907
  21                   -0.04596  -5.53367
  22                   -0.04497  -5.11351
  23                   -0.04283  -4.73212
  24                   -0.04273  -4.32492
  25                   -0.04187  -3.92150
  26                   -0.04024  -3.48892
  27                   -0.03491  -3.05260
  28                   -0.02755  -2.61629
  29                   -0.01978  -2.18002
  30                   -0.01271  -1.74389
  31                   -0.00699  -1.30794
  32                   -0.00297  -0.87235
  33                   -0.00070  -0.43645
  34                    0.00000   0.00000
  35                   -0.00057   0.43645
  36                   -0.00202   0.87208
  37                   -0.00392   1.30720
  38                   -0.00582   1.74323
  39                   -0.00736   2.17879
  40                   -0.00821   2.61281
  41                   -0.00681   3.03933
  42                   -0.00906   3.38827
  43                   -0.00949   3.81366
  44                   -0.00981   4.24782
  45                   -0.01004   4.68376
  46                   -0.01016   5.11911
  47                   -0.01018   5.54111
  48                   -0.01034   5.93693
  49                   -0.01045   6.34328
  50                   -0.01051   6.76715
  51                   -0.01053   7.17649
  52                   -0.01050   7.57806
  53                   -0.01044   7.96667
  54                   -0.01063   8.33747
  55                   -0.01063   8.73783
  56                   -0.01076   9.12961
  57                   -0.01025   9.53880
  58                   -0.01054   9.90468
  59                   -0.01037  10.28001
  60                   -0.01012  10.66049
  61                   -0.01073  10.96342
  62                   -0.01074  11.37437
  63                   -0.01070  11.77869
  64                   -0.01089  12.16221
  65                   -0.01096  12.59004
  66                   -0.01100  13.01802
  67                   -0.01099  13.43869
  68                   -0.01105  13.81981
  69                   -0.01087  14.22569
  70                   -0.01112  14.57999
  71                   -0.01115  14.96824
  72                   -0.01104  15.35832
  73                   -0.01081  15.75009
  74                   -0.01099  16.06193
  75                   -0.01107  16.45171
  76                   -0.01077  16.84403
  77                   -0.01024  17.22004
  78                   -0.01021  17.58680
  79                   -0.01085  17.94331
  80                   -0.00986  18.32970
  81                   -0.00973  18.68547
  82                   -0.01013  19.02815
  83                   -0.01067  19.39463
  84                   -0.01086  19.77026
 --------------------------------------------------------------------------
 
 Total number of points:                   83
 Total number of gradient calculations:    84
 Total number of Hessian calculations:      1
 IRC-IRC-IRC-IRC-IRC-IRC-IRC-IRC-IRC-IRC-IRC-IRC-IRC-IRC-IRC-IRC-IRC-IRC
                          Input orientation:                          
 ---------------------------------------------------------------------
 Center     Atomic      Atomic             Coordinates (Angstroms)
 Number     Number       Type             X           Y           Z
 ---------------------------------------------------------------------
      1          1           0        4.769715    0.820958    0.496778
      2          1           0        4.837662   -0.054496   -0.905073
      3          1           0        4.748528   -0.831568    0.552275
      4          1           0        2.581472   -0.915438   -0.556037
      5          1           0        2.508187    0.041223    0.958407
      6          1           0        2.604374    0.876949   -0.624596
      7          7           0        4.408419   -0.017616    0.026696
      8          6           0        2.905754   -0.002557   -0.055198
      9         53           0       -0.936348    0.002681    0.002895
 ---------------------------------------------------------------------
                    Distance matrix (angstroms):
                    1          2          3          4          5
     1  H    0.000000
     2  H    1.654153   0.000000
     3  H    1.653593   1.653980   0.000000
     4  H    2.985279   2.439967   2.435471   0.000000
     5  H    2.436308   2.984656   2.438408   1.792794   0.000000
     6  H    2.439122   2.435946   2.983530   1.793843   1.792648
     7  N    1.026995   1.026549   1.026852   2.117402   2.117174
     8  C    2.111210   2.111221   2.110000   1.090573   1.089666
     9  I    5.785555   5.845243   5.771967   3.678370   3.574816
                    6          7          8          9
     6  H    0.000000
     7  N    2.116366   0.000000
     8  C    1.090217   1.504970   0.000000
     9  I    3.700649   5.344858   3.842544   0.000000
 Symmetry turned off by external request.
 Stoichiometry    CH6IN
 Framework group  C1[X(CH6IN)]
 Deg. of freedom    21
 Full point group                 C1      NOp   1
 Rotational constants (GHZ):          83.4045840           0.8760928           0.8760010

 **********************************************************************

            Population analysis using the SCF Density.

 **********************************************************************

 Alpha  occ. eigenvalues --  -14.46733 -10.24669  -1.01750  -0.73773  -0.60265
 Alpha  occ. eigenvalues --   -0.59944  -0.59928  -0.50827  -0.43174  -0.43161
 Alpha  occ. eigenvalues --   -0.21946  -0.21946  -0.21883
 Alpha virt. eigenvalues --   -0.01325   0.01169   0.01174   0.01757   0.02796
 Alpha virt. eigenvalues --    0.06880   0.06887   0.07387   0.08502   0.08523
 Alpha virt. eigenvalues --    0.10626   0.14254   0.14334   0.14430   0.17368
 Alpha virt. eigenvalues --    0.17455   0.21211   0.31696   0.54490   0.57566
 Alpha virt. eigenvalues --    0.57630   0.74929   0.74935   0.77527   0.85396
 Alpha virt. eigenvalues --    0.85563   0.88084   0.88160   0.88446   0.88677
 Alpha virt. eigenvalues --    0.93267   1.00476   1.05095   1.11974   1.41139
 Alpha virt. eigenvalues --    1.41193   1.57730   1.91140   1.94234   1.94362
 Alpha virt. eigenvalues --    2.23119   2.23242   2.33620   2.33657   2.58845
 Alpha virt. eigenvalues --   13.23187
          Condensed to atoms (all electrons):
               1          2          3          4          5          6
     1  H    0.275276  -0.014950  -0.014979   0.003218  -0.003313  -0.003262
     2  H   -0.014950   0.275034  -0.014963  -0.003254   0.003203  -0.003312
     3  H   -0.014979  -0.014963   0.275410  -0.003319  -0.003267   0.003233
     4  H    0.003218  -0.003254  -0.003319   0.447298  -0.021583  -0.021562
     5  H   -0.003313   0.003203  -0.003267  -0.021583   0.445252  -0.021583
     6  H   -0.003262  -0.003312   0.003233  -0.021562  -0.021583   0.447695
     7  N    0.274638   0.274523   0.274643  -0.029038  -0.028890  -0.029184
     8  C   -0.020833  -0.020547  -0.020962   0.381011   0.380917   0.381075
     9  I    0.000062  -0.000004   0.000076   0.000167   0.000489   0.000140
               7          8          9
     1  H    0.274638  -0.020833   0.000062
     2  H    0.274523  -0.020547  -0.000004
     3  H    0.274643  -0.020962   0.000076
     4  H   -0.029038   0.381011   0.000167
     5  H   -0.028890   0.380917   0.000489
     6  H   -0.029184   0.381075   0.000140
     7  N    6.972755   0.214113  -0.002266
     8  C    0.214113   5.041671  -0.002096
     9  I   -0.002266  -0.002096   8.002926
 Mulliken charges:
               1
     1  H    0.504142
     2  H    0.504270
     3  H    0.504127
     4  H    0.247063
     5  H    0.248776
     6  H    0.246760
     7  N   -0.921295
     8  C   -0.334349
     9  I   -0.999495
 Sum of Mulliken charges =   0.00000
 Mulliken charges with hydrogens summed into heavy atoms:
               1
     7  N    0.591245
     8  C    0.408249
     9  I   -0.999495
 APT charges:
               1
     1  H    0.860307
     2  H    0.903916
     3  H    0.849666
     4  H    0.281602
     5  H    0.239260
     6  H    0.291394
     7  N   -2.016371
     8  C   -0.425110
     9  I   -0.984664
 Sum of APT charges =   0.00000
 APT charges with hydrogens summed into heavy atoms:
               1
     7  N    0.597519
     8  C    0.387145
     9  I   -0.984664
 Electronic spatial extent (au):  <R**2>=           1046.5512
 Charge=              0.0000 electrons
 Dipole moment (field-independent basis, Debye):
    X=             24.8676    Y=             -0.0912    Z=              0.0795  Tot=             24.8679
 Quadrupole moment (field-independent basis, Debye-Ang):
   XX=             46.3475   YY=            -37.0995   ZZ=            -37.0893
   XY=             -0.3306   XZ=              0.4860   YZ=             -0.0011
 Traceless Quadrupole moment (field-independent basis, Debye-Ang):
   XX=             55.6280   YY=            -27.8191   ZZ=            -27.8089
   XY=             -0.3306   XZ=              0.4860   YZ=             -0.0011
 Octapole moment (field-independent basis, Debye-Ang**2):
  XXX=            354.2727  YYY=              0.0614  ZZZ=              0.1121  XYY=            -10.1859
  XXY=             -1.4873  XXZ=              2.2983  XZZ=            -10.1113  YZZ=             -0.0319
  YYZ=              0.7133  XYZ=              0.0024
 Hexadecapole moment (field-independent basis, Debye-Ang**3):
 XXXX=            652.6488 YYYY=            -83.6311 ZZZZ=            -84.2463 XXXY=             -5.0126
 XXXZ=             10.2678 YYYX=              1.5856 YYYZ=             -0.0799 ZZZX=             -2.0507
 ZZZY=             -0.0118 XXYY=           -177.1791 XXZZ=           -176.1829 YYZZ=            -27.6002
 XXYZ=              0.1402 YYXZ=              5.3154 ZZXY=             -0.0433
 N-N= 6.335752795203D+01 E-N=-3.703648664677D+02  KE= 9.919181186353D+01
  Exact polarizability:   0.000   0.000   0.000   0.000   0.000   0.000
 Approx polarizability:  47.386  -0.003  42.139  -0.009   0.005  42.145

 This type of calculation cannot be archived.


 NATURE REVEALS EVERY SECRET ONCE.
                    - RALPH WALDO EMERSON
 Job cpu time:       0 days  0 hours 21 minutes 13.0 seconds.
 Elapsed time:       0 days  0 hours 18 minutes 35.4 seconds.
 File lengths (MBytes):  RWF=     46 Int=      0 D2E=      0 Chk=      7 Scr=      1
 Normal termination of Gaussian 16 at Sat Jul 16 10:14:29 2022.
