 Entering Gaussian System, Link 0=g16
 Initial command:
 /home/gaussian/g16_A03_avx2/g16/l1.exe "/scratch/mingdazhang.8060/tmp/Gau-24596.inp" -scrdir="/scratch/mingdazhang.8060/tmp/"
 Entering Link 1 = /home/gaussian/g16_A03_avx2/g16/l1.exe PID=     24597.
  
 Copyright (c) 1988,1990,1992,1993,1995,1998,2003,2009,2016,
            Gaussian, Inc.  All Rights Reserved.
  
 This is part of the Gaussian(R) 16 program.  It is based on
 the Gaussian(R) 09 system (copyright 2009, Gaussian, Inc.),
 the Gaussian(R) 03 system (copyright 2003, Gaussian, Inc.),
 the Gaussian(R) 98 system (copyright 1998, Gaussian, Inc.),
 the Gaussian(R) 94 system (copyright 1995, Gaussian, Inc.),
 the Gaussian 92(TM) system (copyright 1992, Gaussian, Inc.),
 the Gaussian 90(TM) system (copyright 1990, Gaussian, Inc.),
 the Gaussian 88(TM) system (copyright 1988, Gaussian, Inc.),
 the Gaussian 86(TM) system (copyright 1986, Carnegie Mellon
 University), and the Gaussian 82(TM) system (copyright 1983,
 Carnegie Mellon University). Gaussian is a federally registered
 trademark of Gaussian, Inc.
  
 This software contains proprietary and confidential information,
 including trade secrets, belonging to Gaussian, Inc.
  
 This software is provided under written license and may be
 used, copied, transmitted, or stored only in accord with that
 written license.
  
 The following legend is applicable only to US Government
 contracts under FAR:
  
                    RESTRICTED RIGHTS LEGEND
  
 Use, reproduction and disclosure by the US Government is
 subject to restrictions as set forth in subparagraphs (a)
 and (c) of the Commercial Computer Software - Restricted
 Rights clause in FAR 52.227-19.
  
 Gaussian, Inc.
 340 Quinnipiac St., Bldg. 40, Wallingford CT 06492
  
  
 ---------------------------------------------------------------
 Warning -- This program may not be used in any manner that
 competes with the business of Gaussian, Inc. or will provide
 assistance to any competitor of Gaussian, Inc.  The licensee
 of this program is prohibited from giving any competitor of
 Gaussian, Inc. access to this program.  By using this program,
 the user acknowledges that Gaussian, Inc. is engaged in the
 business of creating and licensing software in the field of
 computational chemistry and represents and warrants to the
 licensee that it is not a competitor of Gaussian, Inc. and that
 it will not use this program in any manner prohibited above.
 ---------------------------------------------------------------
  

 Cite this work as:
 Gaussian 16, Revision A.03,
 M. J. Frisch, G. W. Trucks, H. B. Schlegel, G. E. Scuseria, 
 M. A. Robb, J. R. Cheeseman, G. Scalmani, V. Barone, 
 G. A. Petersson, H. Nakatsuji, X. Li, M. Caricato, A. V. Marenich, 
 J. Bloino, B. G. Janesko, R. Gomperts, B. Mennucci, H. P. Hratchian, 
 J. V. Ortiz, A. F. Izmaylov, J. L. Sonnenberg, D. Williams-Young, 
 F. Ding, F. Lipparini, F. Egidi, J. Goings, B. Peng, A. Petrone, 
 T. Henderson, D. Ranasinghe, V. G. Zakrzewski, J. Gao, N. Rega, 
 G. Zheng, W. Liang, M. Hada, M. Ehara, K. Toyota, R. Fukuda, 
 J. Hasegawa, M. Ishida, T. Nakajima, Y. Honda, O. Kitao, H. Nakai, 
 T. Vreven, K. Throssell, J. A. Montgomery, Jr., J. E. Peralta, 
 F. Ogliaro, M. J. Bearpark, J. J. Heyd, E. N. Brothers, K. N. Kudin, 
 V. N. Staroverov, T. A. Keith, R. Kobayashi, J. Normand, 
 K. Raghavachari, A. P. Rendell, J. C. Burant, S. S. Iyengar, 
 J. Tomasi, M. Cossi, J. M. Millam, M. Klene, C. Adamo, R. Cammi, 
 J. W. Ochterski, R. L. Martin, K. Morokuma, O. Farkas, 
 J. B. Foresman, and D. J. Fox, Gaussian, Inc., Wallingford CT, 2016.
 
 ******************************************
 Gaussian 16:  ES64L-G16RevA.03 25-Dec-2016
                18-Jul-2022 
 ******************************************
 %NProcShared=16
 Will use up to   16 processors via shared memory.
 %Mem=16GB
 %chk=example.chk
 ----------------------------------------------------------------------
 # IRC=(CalcFC,ReCalc=4,HPC,StepSize=5,MaxPoints=200) SCRF B3LYP/GenECP
  EmpiricalDispersion=GD3BJ
 ----------------------------------------------------------------------
 1/10=4,18=10,26=3,38=1,39=5,42=200,44=3,45=3,71=4,172=1/1,23;
 2/12=2,17=6,18=5,29=1,40=1/2;
 3/5=7,11=2,16=1,17=8,25=1,30=1,70=2201,71=2,74=-5,124=41,140=1/1,2,3;
 4//1;
 5/5=2,38=5/2;
 8/6=4,10=90,11=11/1;
 11/6=1,8=1,9=11,15=111,16=1/1,2,10;
 10/6=1,13=1/2;
 6/7=2,8=2,9=2,10=2,28=1/1;
 7/10=1,18=20,25=1/1,2,3,16;
 1/10=4,18=10,26=3,39=5,42=200,44=3,45=3,71=4/23(2);
 2/29=1/2;
 99/5=20/99;
 2/29=1/2;
 3/5=7,6=1,11=2,16=1,17=8,25=1,30=1,70=2205,71=2,74=-5,82=7,124=41,140=1/1,2,3;
 4/5=5,16=3,69=1/1;
 5/5=2,38=5/2;
 8/6=4,10=90,11=11/1;
 11/6=1,8=1,9=11,15=111,16=1/1,2,10;
 10/6=1,13=1/2;
 7/10=1,18=20,25=1/1,2,3,16;
 1/18=10,26=3,39=5,42=200,44=3,45=3,71=4/23(-8);
 2/29=1/2;
 6/7=2,8=2,9=2,10=2,19=2,28=1/1;
 99/5=20,9=1/99;
 ----------------------------------------------------------------------
 Found TS at B3LYP-D3(BJ)/(6-31G* for H and C, 6-31+G* for N, ma-SDD fo
 r I) with IEFPCM water
 ----------------------------------------------------------------------
 Symbolic Z-matrix:
 Charge =  0 Multiplicity = 1
 H                     4.15684   0.757     0.57834 
 H                     4.15702   0.12208  -0.94474 
 H                     4.15631  -0.87953   0.36663 
 H                     1.63967  -0.85274  -0.65379 
 H                     1.6397   -0.13958   1.06547 
 H                     1.63977   0.99277  -0.41177 
 N                     3.79652  -0.00006  -0.00001 
 C                     1.56905   0.00015  -0.00003 
 I                    -1.00716  -0.00001   0. 
 
 IRC-IRC-IRC-IRC-IRC-IRC-IRC-IRC-IRC-IRC-IRC-IRC-IRC-IRC-IRC-IRC-IRC-IRC
 ------------------------------------------------------------------------
 INPUT DATA FOR L123
 ------------------------------------------------------------------------
 GENERAL PARAMETERS:
 Follow reaction path in both directions.
 Maximum points per path      = 200
 Step size                    =   0.050 bohr
 Integration scheme           = HPC                                 
    Redo corrector integration= Yes                                 
    DWI Weight Power          =  2
    DWI will use Hessian update vectors when possible.
    Max correction cycles     =  20
 Initial Hessian              = CalcFC
 Hessian evaluation           = Analytic every   4 predictor steps
                              = Update at all corrector steps
 Hessian updating method      = Bofill                              
 ------------------------------------------------------------------------
 IRC-IRC-IRC-IRC-IRC-IRC-IRC-IRC-IRC-IRC-IRC-IRC-IRC-IRC-IRC-IRC-IRC-IRC
                          Input orientation:                          
 ---------------------------------------------------------------------
 Center     Atomic      Atomic             Coordinates (Angstroms)
 Number     Number       Type             X           Y           Z
 ---------------------------------------------------------------------
      1          1           0        4.156841    0.757004    0.578341
      2          1           0        4.157017    0.122083   -0.944743
      3          1           0        4.156306   -0.879531    0.366630
      4          1           0        1.639668   -0.852735   -0.653785
      5          1           0        1.639698   -0.139583    1.065474
      6          1           0        1.639766    0.992765   -0.411768
      7          7           0        3.796521   -0.000055   -0.000005
      8          6           0        1.569054    0.000153   -0.000027
      9         53           0       -1.007156   -0.000010    0.000001
 ---------------------------------------------------------------------
                    Distance matrix (angstroms):
                    1          2          3          4          5
     1  H    0.000000
     2  H    1.650124   0.000000
     3  H    1.650172   1.650130   0.000000
     4  H    3.231958   2.715138   2.715775   0.000000
     5  H    2.716096   3.232079   2.714631   1.861300   0.000000
     6  H    2.715063   2.716377   3.231775   1.861301   1.861305
     7  N    1.018554   1.018531   1.018501   2.409669   2.409689
     8  C    2.757531   2.757700   2.757200   1.076942   1.076944
     9  I    5.251134   5.251298   5.250649   2.856616   2.856668
                    6          7          8          9
     6  H    0.000000
     7  N    2.409737   0.000000
     8  C    1.076944   2.227467   0.000000
     9  I    2.856808   4.803677   2.576210   0.000000
 Symmetry turned off by external request.
 This structure is nearly, but not quite of a higher symmetry.
 Consider Symm=Loose if the higher symmetry is desired.
 Stoichiometry    CH6IN
 Framework group  C1[X(CH6IN)]
 Deg. of freedom    21
 Full point group                 C1      NOp   1
 Rotational constants (GHZ):          81.0443634           1.2196511           1.2196508
 General basis read from cards:  (5D, 7F)
 ======================================================================================================
                                       Pseudopotential Parameters
 ======================================================================================================
  Center     Atomic      Valence      Angular      Power
  Number     Number     Electrons     Momentum     of R      Exponent        Coefficient   SO-Coeffient
 ======================================================================================================
    1          1
                                   No pseudopotential on this center.
    2          1
                                   No pseudopotential on this center.
    3          1
                                   No pseudopotential on this center.
    4          1
                                   No pseudopotential on this center.
    5          1
                                   No pseudopotential on this center.
    6          1
                                   No pseudopotential on this center.
    7          7
                                   No pseudopotential on this center.
    8          6
                                   No pseudopotential on this center.
    9         53            7
                                      G and up 
                                                     2        1.0000000        0.00000000    0.00000000
                                      S - G
                                                     2        3.5112000       83.11386300    0.00000000
                                                     2        1.7556000        5.20187600    0.00000000
                                      P - G
                                                     2        2.9688000       82.81110900    0.00000000
                                                     2        1.4844000        3.37968200    0.00000000
                                      D - G
                                                     2        1.9066000       10.30427700    0.00000000
                                                     2        0.9533000        7.58803200    0.00000000
                                      F - G
                                                     2        2.3075000      -21.47793600    0.00000000
 ======================================================================================================
    59 basis functions,   107 primitive gaussians,    61 cartesian basis functions
    13 alpha electrons       13 beta electrons
       nuclear repulsion energy        61.3059191525 Hartrees.
 NAtoms=    9 NActive=    9 NUniq=    9 SFac= 1.00D+00 NAtFMM=   60 NAOKFM=F Big=F
 Integral buffers will be    131072 words long.
 Raffenetti 2 integral format.
 Two-electron integral symmetry is turned off.
 Nuclear repulsion after empirical dispersion term =       61.2967813116 Hartrees.
 Force inversion solution in PCM.
 ------------------------------------------------------------------------------
 Polarizable Continuum Model (PCM)
 =================================
 Model                : PCM.
 Atomic radii         : UFF (Universal Force Field).
 Polarization charges : Total charges.
 Charge compensation  : None.
 Solution method      : Matrix inversion.
 Cavity type          : Scaled VdW (van der Waals Surface) (Alpha=1.100).
 Cavity algorithm     : GePol (No added spheres)
                        Default sphere list used, NSphG=    9.
                        Lebedev-Laikov grids with approx.  5.0 points / Ang**2.
                        Smoothing algorithm: York/Karplus (Gamma=1.0000).
                        Polarization charges: spherical gaussians, with
                                              point-specific exponents (IZeta= 3).
                        Self-potential: point-specific (ISelfS= 7).
                        Self-field    : sphere-specific E.n sum rule (ISelfD= 2).
 1st derivatives      : Analytical E(r).r(x)/FMM algorithm (CHGder, D1EAlg=3).
                        Cavity 1st derivative terms included.
 2nd derivatives      : Analytical E(r).r(xy)/FMM algorithm (CHGder, D2EAlg=3).
                        Cavity 2nd derivative terms included.
 Solvent              : Water, Eps=  78.355300 Eps(inf)=   1.777849
 ------------------------------------------------------------------------------
 Spheres list:
 ISph  on   Nord     Re0    Alpha      Xe            Ye            Ze
    1   H      1    1.4430  1.100      4.156841      0.757004      0.578341
    2   H      2    1.4430  1.100      4.157017      0.122083     -0.944743
    3   H      3    1.4430  1.100      4.156306     -0.879531      0.366630
    4   H      4    1.4430  1.100      1.639668     -0.852735     -0.653785
    5   H      5    1.4430  1.100      1.639698     -0.139583      1.065474
    6   H      6    1.4430  1.100      1.639766      0.992765     -0.411768
    7   N      7    1.8300  1.100      3.796521     -0.000055     -0.000005
    8   C      8    1.9255  1.100      1.569054      0.000153     -0.000027
    9   I      9    2.2500  1.100     -1.007156     -0.000010      0.000001
 ------------------------------------------------------------------------------
 One-electron integrals computed using PRISM.
   1 Symmetry operations used in ECPInt.
 ECPInt:  NShTT=     406 NPrTT=    1771 LenC2=     407 LenP2D=    1540.
 LDataN:  DoStor=T MaxTD1= 6 Len=  172
 NBasis=    59 RedAO= T EigKep=  1.39D-02  NBF=    59
 NBsUse=    59 1.00D-06 EigRej= -1.00D+00 NBFU=    59
 Defaulting to unpruned grid for atomic number  53.
 ExpMin= 1.09D-02 ExpMax= 4.17D+03 ExpMxC= 6.27D+02 IAcc=3 IRadAn=         5 AccDes= 0.00D+00
 Harris functional with IExCor=  402 and IRadAn=       5 diagonalized for initial guess.
 HarFok:  IExCor=  402 AccDes= 0.00D+00 IRadAn=         5 IDoV= 1 UseB2=F ITyADJ=14
 ICtDFT=  3500011 ScaDFX=  1.000000  1.000000  1.000000  1.000000
 Defaulting to unpruned grid for atomic number  53.
 FoFCou: FMM=F IPFlag=           0 FMFlag=      100000 FMFlg1=           0
         NFxFlg=           0 DoJE=T BraDBF=F KetDBF=T FulRan=T
         wScrn=  0.000000 ICntrl=       500 IOpCl=  0 I1Cent=   200000004 NGrid=           0
         NMat0=    1 NMatS0=      1 NMatT0=    0 NMatD0=    1 NMtDS0=    0 NMtDT0=    0
 Symmetry not used in FoFCou.
 Keep R1 ints in memory in canonical form, NReq=15709751.
 Requested convergence on RMS density matrix=1.00D-08 within 128 cycles.
 Requested convergence on MAX density matrix=1.00D-06.
 Requested convergence on             energy=1.00D-06.
 No special actions if energy rises.
 Defaulting to unpruned grid for atomic number  53.
 Defaulting to unpruned grid for atomic number  53.
 Defaulting to unpruned grid for atomic number  53.
 Defaulting to unpruned grid for atomic number  53.
 Defaulting to unpruned grid for atomic number  53.
 Defaulting to unpruned grid for atomic number  53.
 Defaulting to unpruned grid for atomic number  53.
 Defaulting to unpruned grid for atomic number  53.
 Defaulting to unpruned grid for atomic number  53.
 Defaulting to unpruned grid for atomic number  53.
 Defaulting to unpruned grid for atomic number  53.
 Defaulting to unpruned grid for atomic number  53.
 Defaulting to unpruned grid for atomic number  53.
 Defaulting to unpruned grid for atomic number  53.
 Defaulting to unpruned grid for atomic number  53.
 Defaulting to unpruned grid for atomic number  53.
 Inv3:  Mode=1 IEnd=     3072432.
 Iteration    1 A*A^-1 deviation from unit magnitude is 2.44D-15 for     23.
 Iteration    1 A*A^-1 deviation from orthogonality  is 2.20D-15 for    620     35.
 Iteration    1 A^-1*A deviation from unit magnitude is 2.66D-15 for    724.
 Iteration    1 A^-1*A deviation from orthogonality  is 1.46D-15 for    627    538.
 Error on total polarization charges =  0.02384
 SCF Done:  E(RB3LYP) =  -107.889491799     A.U. after   10 cycles
            NFock= 10  Conv=0.70D-08     -V/T= 2.0877
 DoSCS=F DFT=T ScalE2(SS,OS)=  1.000000  1.000000
 Range of M.O.s used for correlation:     1    59
 NBasis=    59 NAE=    13 NBE=    13 NFC=     0 NFV=     0
 NROrb=     59 NOA=    13 NOB=    13 NVA=    46 NVB=    46
   1 Symmetry operations used in ECPInt.
 ECPInt:  NShTT=     406 NPrTT=    1771 LenC2=     407 LenP2D=    1540.
 LDataN:  DoStor=T MaxTD1= 7 Len=  274
 Symmetrizing basis deriv contribution to polar:
 IMax=3 JMax=2 DiffMx= 0.00D+00
 G2DrvN: will do    10 centers at a time, making    1 passes.
 Calling FoFCou, ICntrl=  3107 FMM=F I1Cent=   0 AccDes= 0.00D+00.
 Defaulting to unpruned grid for atomic number  53.
 Defaulting to unpruned grid for atomic number  53.
 Defaulting to unpruned grid for atomic number  53.
 Defaulting to unpruned grid for atomic number  53.
 Defaulting to unpruned grid for atomic number  53.
 Defaulting to unpruned grid for atomic number  53.
 Defaulting to unpruned grid for atomic number  53.
 Defaulting to unpruned grid for atomic number  53.
 Defaulting to unpruned grid for atomic number  53.
 Defaulting to unpruned grid for atomic number  53.
 Defaulting to unpruned grid for atomic number  53.
 Defaulting to unpruned grid for atomic number  53.
 Defaulting to unpruned grid for atomic number  53.
 Defaulting to unpruned grid for atomic number  53.
 Defaulting to unpruned grid for atomic number  53.
 Defaulting to unpruned grid for atomic number  53.
 NEqPCM:  Using equilibrium solvation (IEInf=0, Eps=  78.3553, EpsInf=   1.7778)
 G2PCM: DoFxE=T DoFxN=T DoGrad=T DoDP/DQ/DG/TGxP=FFFF NFrqRd=   0 IEInf=0 SqF1=F DoCFld=F IF1Alg=4.
 End of G2Drv F.D. properties file   721 does not exist.
 End of G2Drv F.D. properties file   722 does not exist.
 End of G2Drv F.D. properties file   788 does not exist.
          IDoAtm=111111111
 NEqPCM:  Using equilibrium solvation (IEInf=0, Eps=  78.3553, EpsInf=   1.7778)
          Differentiating once with respect to nuclear coordinates.
 Defaulting to unpruned grid for atomic number  53.
 Keep R1 ints in memory in canonical form, NReq=15662268.
 Defaulting to unpruned grid for atomic number  53.
 Defaulting to unpruned grid for atomic number  53.
 Defaulting to unpruned grid for atomic number  53.
 Defaulting to unpruned grid for atomic number  53.
 Defaulting to unpruned grid for atomic number  53.
 Defaulting to unpruned grid for atomic number  53.
 Defaulting to unpruned grid for atomic number  53.
 Defaulting to unpruned grid for atomic number  53.
 Defaulting to unpruned grid for atomic number  53.
 Defaulting to unpruned grid for atomic number  53.
 Defaulting to unpruned grid for atomic number  53.
 Defaulting to unpruned grid for atomic number  53.
 Defaulting to unpruned grid for atomic number  53.
 Defaulting to unpruned grid for atomic number  53.
 Defaulting to unpruned grid for atomic number  53.
 Defaulting to unpruned grid for atomic number  53.
          There are    30 degrees of freedom in the 1st order CPHF.  IDoFFX=6 NUNeed=     0.
     24 vectors produced by pass  0 Test12= 1.99D-15 3.33D-09 XBig12= 2.74D-02 7.26D-02.
 AX will form    24 AO Fock derivatives at one time.
     24 vectors produced by pass  1 Test12= 1.99D-15 3.33D-09 XBig12= 3.18D-03 2.02D-02.
     24 vectors produced by pass  2 Test12= 1.99D-15 3.33D-09 XBig12= 2.65D-05 1.42D-03.
     24 vectors produced by pass  3 Test12= 1.99D-15 3.33D-09 XBig12= 5.27D-08 8.10D-05.
     23 vectors produced by pass  4 Test12= 1.99D-15 3.33D-09 XBig12= 3.78D-11 1.88D-06.
     11 vectors produced by pass  5 Test12= 1.99D-15 3.33D-09 XBig12= 1.90D-14 4.59D-08.
 InvSVY:  IOpt=1 It=  1 EMax= 1.44D-15
 Solved reduced A of dimension   130 with    24 vectors.
 End of Minotr F.D. properties file   721 does not exist.
 End of Minotr F.D. properties file   722 does not exist.
 End of Minotr F.D. properties file   788 does not exist.

 **********************************************************************

            Population analysis using the SCF density.

 **********************************************************************

 Alpha  occ. eigenvalues --  -14.35123 -10.24829  -0.88814  -0.71879  -0.63073
 Alpha  occ. eigenvalues --   -0.49977  -0.49975  -0.44693  -0.44692  -0.34579
 Alpha  occ. eigenvalues --   -0.25202  -0.24263  -0.24262
 Alpha virt. eigenvalues --   -0.05010   0.00423   0.01236   0.01241   0.02062
 Alpha virt. eigenvalues --    0.04814   0.07824   0.08419   0.08422   0.09348
 Alpha virt. eigenvalues --    0.09349   0.13211   0.15948   0.15948   0.21700
 Alpha virt. eigenvalues --    0.21975   0.21977   0.32255   0.55465   0.55466
 Alpha virt. eigenvalues --    0.72249   0.81098   0.81098   0.83690   0.84571
 Alpha virt. eigenvalues --    0.84572   0.90323   0.90324   0.91344   0.94600
 Alpha virt. eigenvalues --    0.96703   0.96704   1.04767   1.16111   1.50856
 Alpha virt. eigenvalues --    1.60167   1.60170   1.68670   1.68671   1.92933
 Alpha virt. eigenvalues --    2.13042   2.19764   2.19765   2.41791   2.41797
 Alpha virt. eigenvalues --   13.77309
          Condensed to atoms (all electrons):
               1          2          3          4          5          6
     1  H    0.324254  -0.021042  -0.021040   0.000875  -0.000536  -0.000541
     2  H   -0.021042   0.324302  -0.021047  -0.000540   0.000875  -0.000536
     3  H   -0.021040  -0.021047   0.324282  -0.000537  -0.000541   0.000875
     4  H    0.000875  -0.000540  -0.000537   0.454657  -0.019652  -0.019651
     5  H   -0.000536   0.000875  -0.000541  -0.019652   0.454613  -0.019648
     6  H   -0.000541  -0.000536   0.000875  -0.019651  -0.019648   0.454603
     7  N    0.292197   0.292192   0.292189  -0.026123  -0.026120  -0.026122
     8  C   -0.002947  -0.002946  -0.002954   0.379373   0.379372   0.379371
     9  I    0.000031   0.000031   0.000031  -0.034756  -0.034747  -0.034744
               7          8          9
     1  H    0.292197  -0.002947   0.000031
     2  H    0.292192  -0.002946   0.000031
     3  H    0.292189  -0.002954   0.000031
     4  H   -0.026123   0.379373  -0.034756
     5  H   -0.026120   0.379372  -0.034747
     6  H   -0.026122   0.379371  -0.034744
     7  N    7.317083   0.008400   0.010625
     8  C    0.008400   5.176426   0.131103
     9  I    0.010625   0.131103   7.468238
 Mulliken charges:
               1
     1  H    0.428749
     2  H    0.428711
     3  H    0.428743
     4  H    0.266354
     5  H    0.266384
     6  H    0.266393
     7  N   -1.134323
     8  C   -0.445198
     9  I   -0.505812
 Sum of Mulliken charges =  -0.00000
 Mulliken charges with hydrogens summed into heavy atoms:
               1
     7  N    0.151880
     8  C    0.353932
     9  I   -0.505812
 APT charges:
               1
     1  H    0.767463
     2  H    0.767541
     3  H    0.767099
     4  H    0.481348
     5  H    0.481390
     6  H    0.481456
     7  N   -2.298561
     8  C   -1.015914
     9  I   -0.431824
 Sum of APT charges =  -0.00000
 APT charges with hydrogens summed into heavy atoms:
               1
     7  N    0.003543
     8  C    0.428281
     9  I   -0.431824
 Electronic spatial extent (au):  <R**2>=            733.9941
 Charge=             -0.0000 electrons
 Dipole moment (field-independent basis, Debye):
    X=             11.5104    Y=              0.0001    Z=              0.0006  Tot=             11.5104
 Quadrupole moment (field-independent basis, Debye-Ang):
   XX=             -8.9768   YY=            -35.5792   ZZ=            -35.5796
   XY=              0.0004   XZ=              0.0014   YZ=             -0.0001
 Traceless Quadrupole moment (field-independent basis, Debye-Ang):
   XX=             17.7351   YY=             -8.8673   ZZ=             -8.8677
   XY=              0.0004   XZ=              0.0014   YZ=             -0.0001
 Octapole moment (field-independent basis, Debye-Ang**2):
  XXX=             76.2533  YYY=              0.0143  ZZZ=              0.0218  XYY=             -5.4042
  XXY=              0.0033  XXZ=              0.0022  XZZ=             -5.4048  YZZ=             -0.0151
  YYZ=             -0.0202  XYZ=              0.0001
 Hexadecapole moment (field-independent basis, Debye-Ang**3):
 XXXX=           -453.3273 YYYY=            -72.4465 ZZZZ=            -72.4483 XXXY=              0.0337
 XXXZ=             -0.0069 YYYX=             -1.0914 YYYZ=             -0.0012 ZZZX=             -2.7060
 ZZZY=              0.0003 XXYY=           -140.5803 XXZZ=           -140.5792 YYZZ=            -24.1492
 XXYZ=              0.0019 YYXZ=              2.7104 ZZXY=              1.0901
 N-N= 6.129678131163D+01 E-N=-3.677354660876D+02  KE= 9.918939759185D+01
  Exact polarizability:   0.000   0.000   0.000   0.000   0.000   0.000
 Approx polarizability: 166.963   0.004  41.654  -0.002   0.000  41.654
   1 Symmetry operations used in ECPInt.
 ECPInt:  NShTT=     406 NPrTT=    1771 LenC2=     407 LenP2D=    1540.
 LDataN:  DoStor=T MaxTD1= 8 Len=  415
 D2PCM: PCM CHGder 2nd derivatives, FixD1E=F FixD2E=F DoIter=F DoCFld=F I1PDM=0
 Calling FoFJK, ICntrl=    100147 FMM=F ISym2X=0 I1Cent= 0 IOpClX= 0 NMat=1 NMatS=1 NMatT=0.
 Defaulting to unpruned grid for atomic number  53.
 Defaulting to unpruned grid for atomic number  53.
 Defaulting to unpruned grid for atomic number  53.
 Defaulting to unpruned grid for atomic number  53.
 Defaulting to unpruned grid for atomic number  53.
 Defaulting to unpruned grid for atomic number  53.
 Defaulting to unpruned grid for atomic number  53.
 Defaulting to unpruned grid for atomic number  53.
 Defaulting to unpruned grid for atomic number  53.
 Defaulting to unpruned grid for atomic number  53.
 Defaulting to unpruned grid for atomic number  53.
 Defaulting to unpruned grid for atomic number  53.
 Defaulting to unpruned grid for atomic number  53.
 Defaulting to unpruned grid for atomic number  53.
 Defaulting to unpruned grid for atomic number  53.
 Defaulting to unpruned grid for atomic number  53.
 -------------------------------------------------------------------
 Center     Atomic                   Forces (Hartrees/Bohr)
 Number     Number              X              Y              Z
 -------------------------------------------------------------------
      1        1          -0.000015150   -0.000021117    0.000006532
      2        1          -0.000000044   -0.000021117   -0.000011138
      3        1           0.000019266   -0.000026088    0.000015475
      4        1           0.000011746   -0.000003109   -0.000000025
      5        1           0.000005589    0.000001348    0.000000590
      6        1           0.000000629   -0.000000294   -0.000001408
      7        7          -0.000018224    0.000070225   -0.000008871
      8        6           0.000009464   -0.000004972    0.000000774
      9       53          -0.000013277    0.000005124   -0.000001928
 -------------------------------------------------------------------
 Cartesian Forces:  Max     0.000070225 RMS     0.000017666
 IRC-IRC-IRC-IRC-IRC-IRC-IRC-IRC-IRC-IRC-IRC-IRC-IRC-IRC-IRC-IRC-IRC-IRC
          ******** Start new reaction path calculation ********
 Supplied step size of   0.0500 bohr.
    Integration on MW PES will use step size of   0.1455 sqrt(amu)*bohr.
 Point Number:   0          Path Number:   1
 Calculating another point on the path.
 IRC-IRC-IRC-IRC-IRC-IRC-IRC-IRC-IRC-IRC-IRC-IRC-IRC-IRC-IRC-IRC-IRC-IRC
                          Input orientation:                          
 ---------------------------------------------------------------------
 Center     Atomic      Atomic             Coordinates (Angstroms)
 Number     Number       Type             X           Y           Z
 ---------------------------------------------------------------------
      1          1           0        4.406516    0.756566    0.578027
      2          1           0        4.406682    0.122015   -0.944211
      3          1           0        4.405925   -0.879059    0.366421
      4          1           0        1.878746   -0.851915   -0.653152
      5          1           0        1.878790   -0.139434    1.064460
      6          1           0        1.878827    0.991823   -0.411383
      7          7           0        4.044904   -0.000056   -0.000006
      8          6           0        1.789967    0.000163   -0.000023
      9         53           0       -0.765354   -0.000009    0.000002
 ---------------------------------------------------------------------
                    Distance matrix (angstroms):
                    1          2          3          4          5
     1  H    0.000000
     2  H    1.649201   0.000000
     3  H    1.649256   1.649214   0.000000
     4  H    3.239233   2.724650   2.725234   0.000000
     5  H    2.725588   3.239344   2.724099   1.859521   0.000000
     6  H    2.724608   2.725898   3.239043   1.859521   1.859530
     7  N    1.018509   1.018483   1.018455   2.417541   2.417554
     8  C    2.784352   2.784517   2.783981   1.077263   1.077266
     9  I    5.258779   5.258933   5.258243   2.853702   2.853771
                    6          7          8          9
     6  H    0.000000
     7  N    2.417632   0.000000
     8  C    1.077266   2.254938   0.000000
     9  I    2.853885   4.810258   2.555321   0.000000
 Symmetry turned off by external request.
 Stoichiometry    CH6IN
 Framework group  C1[X(CH6IN)]
 Deg. of freedom    21
 Full point group                 C1      NOp   1
 Rotational constants (GHZ):          81.1709196           1.2196051           1.2196048
 Basis read from rwf:  (5D, 7F)
 Pseudo-potential data read from rwf file.
    59 basis functions,   107 primitive gaussians,    61 cartesian basis functions
    13 alpha electrons       13 beta electrons
       nuclear repulsion energy        61.1941545141 Hartrees.
 NAtoms=    9 NActive=    9 NUniq=    9 SFac= 1.00D+00 NAtFMM=   60 NAOKFM=F Big=F
 Integral buffers will be    131072 words long.
 Raffenetti 2 integral format.
 Two-electron integral symmetry is turned off.
 Nuclear repulsion after empirical dispersion term =       61.1850344426 Hartrees.
 Force inversion solution in PCM.
 ------------------------------------------------------------------------------
 Polarizable Continuum Model (PCM)
 =================================
 Model                : PCM.
 Atomic radii         : UFF (Universal Force Field).
 Polarization charges : Total charges.
 Charge compensation  : None.
 Solution method      : Matrix inversion.
 Cavity type          : Scaled VdW (van der Waals Surface) (Alpha=1.100).
 Cavity algorithm     : GePol (No added spheres)
                        Default sphere list used, NSphG=    9.
                        Lebedev-Laikov grids with approx.  5.0 points / Ang**2.
                        Smoothing algorithm: York/Karplus (Gamma=1.0000).
                        Polarization charges: spherical gaussians, with
                                              point-specific exponents (IZeta= 3).
                        Self-potential: point-specific (ISelfS= 7).
                        Self-field    : sphere-specific E.n sum rule (ISelfD= 2).
 1st derivatives      : Analytical E(r).r(x)/FMM algorithm (CHGder, D1EAlg=3).
                        Cavity 1st derivative terms included.
 Solvent              : Water, Eps=  78.355300 Eps(inf)=   1.777849
 ------------------------------------------------------------------------------
 Spheres list:
 ISph  on   Nord     Re0    Alpha      Xe            Ye            Ze
    1   H      1    1.4430  1.100      4.406516      0.756566      0.578027
    2   H      2    1.4430  1.100      4.406682      0.122015     -0.944211
    3   H      3    1.4430  1.100      4.405925     -0.879059      0.366421
    4   H      4    1.4430  1.100      1.878746     -0.851915     -0.653152
    5   H      5    1.4430  1.100      1.878790     -0.139434      1.064460
    6   H      6    1.4430  1.100      1.878827      0.991823     -0.411383
    7   N      7    1.8300  1.100      4.044904     -0.000056     -0.000006
    8   C      8    1.9255  1.100      1.789967      0.000163     -0.000023
    9   I      9    2.2500  1.100     -0.765354     -0.000009      0.000002
 ------------------------------------------------------------------------------
 One-electron integrals computed using PRISM.
   1 Symmetry operations used in ECPInt.
 ECPInt:  NShTT=     406 NPrTT=    1771 LenC2=     407 LenP2D=    1541.
 LDataN:  DoStor=T MaxTD1= 6 Len=  172
 NBasis=    59 RedAO= T EigKep=  1.39D-02  NBF=    59
 NBsUse=    59 1.00D-06 EigRej= -1.00D+00 NBFU=    59
 Defaulting to unpruned grid for atomic number  53.
 Initial guess from the checkpoint file:  "example.chk"
 B after Tr=     0.455263    0.000002    0.000002
         Rot=    1.000000    0.000000    0.000000    0.000000 Ang=   0.00 deg.
 ExpMin= 1.09D-02 ExpMax= 4.17D+03 ExpMxC= 6.27D+02 IAcc=3 IRadAn=         5 AccDes= 0.00D+00
 Harris functional with IExCor=  402 and IRadAn=       5 diagonalized for initial guess.
 HarFok:  IExCor=  402 AccDes= 0.00D+00 IRadAn=         5 IDoV= 1 UseB2=F ITyADJ=14
 ICtDFT=  3500011 ScaDFX=  1.000000  1.000000  1.000000  1.000000
 Defaulting to unpruned grid for atomic number  53.
 FoFCou: FMM=F IPFlag=           0 FMFlag=      100000 FMFlg1=           0
         NFxFlg=           0 DoJE=T BraDBF=F KetDBF=T FulRan=T
         wScrn=  0.000000 ICntrl=       500 IOpCl=  0 I1Cent=   200000004 NGrid=           0
         NMat0=    1 NMatS0=      1 NMatT0=    0 NMatD0=    1 NMtDS0=    0 NMtDT0=    0
 Symmetry not used in FoFCou.
 Keep R1 ints in memory in canonical form, NReq=15709751.
 Requested convergence on RMS density matrix=1.00D-08 within 128 cycles.
 Requested convergence on MAX density matrix=1.00D-06.
 Requested convergence on             energy=1.00D-06.
 No special actions if energy rises.
 Defaulting to unpruned grid for atomic number  53.
 Defaulting to unpruned grid for atomic number  53.
 Defaulting to unpruned grid for atomic number  53.
 Defaulting to unpruned grid for atomic number  53.
 Defaulting to unpruned grid for atomic number  53.
 Defaulting to unpruned grid for atomic number  53.
 Defaulting to unpruned grid for atomic number  53.
 Defaulting to unpruned grid for atomic number  53.
 Defaulting to unpruned grid for atomic number  53.
 Defaulting to unpruned grid for atomic number  53.
 Defaulting to unpruned grid for atomic number  53.
 Defaulting to unpruned grid for atomic number  53.
 Defaulting to unpruned grid for atomic number  53.
 Defaulting to unpruned grid for atomic number  53.
 Defaulting to unpruned grid for atomic number  53.
 Defaulting to unpruned grid for atomic number  53.
 Inv3:  Mode=1 IEnd=     3084588.
 Iteration    1 A*A^-1 deviation from unit magnitude is 3.33D-15 for    215.
 Iteration    1 A*A^-1 deviation from orthogonality  is 2.26D-15 for    469    146.
 Iteration    1 A^-1*A deviation from unit magnitude is 3.11D-15 for    215.
 Iteration    1 A^-1*A deviation from orthogonality  is 1.55D-15 for    753    593.
 Error on total polarization charges =  0.02347
 SCF Done:  E(RB3LYP) =  -107.889560478     A.U. after    9 cycles
            NFock=  9  Conv=0.43D-08     -V/T= 2.0877
 DoSCS=F DFT=T ScalE2(SS,OS)=  1.000000  1.000000
 Range of M.O.s used for correlation:     1    59
 NBasis=    59 NAE=    13 NBE=    13 NFC=     0 NFV=     0
 NROrb=     59 NOA=    13 NOB=    13 NVA=    46 NVB=    46
 Symmetrizing basis deriv contribution to polar:
 IMax=3 JMax=2 DiffMx= 0.00D+00
   1 Symmetry operations used in ECPInt.
 ECPInt:  NShTT=     406 NPrTT=    1771 LenC2=     407 LenP2D=    1541.
 LDataN:  DoStor=T MaxTD1= 7 Len=  274
 D1PCM: PCM CHGder 1st derivatives, ID1Alg=3 FixD1E=F DoIter=F DoCFld=F I1PDM=0.
 Calling FoFJK, ICntrl=      2147 FMM=F ISym2X=0 I1Cent= 0 IOpClX= 0 NMat=1 NMatS=1 NMatT=0.
 Defaulting to unpruned grid for atomic number  53.
 Defaulting to unpruned grid for atomic number  53.
 Defaulting to unpruned grid for atomic number  53.
 Defaulting to unpruned grid for atomic number  53.
 Defaulting to unpruned grid for atomic number  53.
 Defaulting to unpruned grid for atomic number  53.
 Defaulting to unpruned grid for atomic number  53.
 Defaulting to unpruned grid for atomic number  53.
 Defaulting to unpruned grid for atomic number  53.
 Defaulting to unpruned grid for atomic number  53.
 Defaulting to unpruned grid for atomic number  53.
 Defaulting to unpruned grid for atomic number  53.
 Defaulting to unpruned grid for atomic number  53.
 Defaulting to unpruned grid for atomic number  53.
 Defaulting to unpruned grid for atomic number  53.
 Defaulting to unpruned grid for atomic number  53.
 -------------------------------------------------------------------
 Center     Atomic                   Forces (Hartrees/Bohr)
 Number     Number              X              Y              Z
 -------------------------------------------------------------------
      1        1           0.000099171   -0.000023736    0.000005058
      2        1           0.000114863   -0.000021340   -0.000008607
      3        1           0.000133455   -0.000023918    0.000014211
      4        1          -0.000036334    0.000081850    0.000065114
      5        1          -0.000042027    0.000015205   -0.000105572
      6        1          -0.000047443   -0.000098786    0.000039624
      7        7           0.001239277    0.000069444   -0.000009381
      8        6          -0.002882076   -0.000004379    0.000001005
      9       53           0.001421114    0.000005659   -0.000001453
 -------------------------------------------------------------------
 Cartesian Forces:  Max     0.002882076 RMS     0.000665232
 IRC-IRC-IRC-IRC-IRC-IRC-IRC-IRC-IRC-IRC-IRC-IRC-IRC-IRC-IRC-IRC-IRC-IRC
 Pt  1 Step number   1 out of a maximum of  20
 Modified Bulirsch-Stoer Extrapolation Cycles:
    EPS =    0.000010000000000
      PEZero:  N= 2 I= 1 D=  3.79D-04 Err=  1.04D-03
      PEZero:  N= 3 I= 2 D=  3.79D-04 Err=  6.87D-04
      PEZero:  N= 3 I= 1 D=  7.58D-04 Err=  7.46D-06
 Maximum DWI energy   std dev =  0.000000238 at pt    39
 Maximum DWI gradient std dev =  0.089839336 at pt     1
 CORRECTOR INTEGRATION CONVERGENCE:
   Recorrection delta-x convergence threshold:    0.010000
   Delta-x Convergence Met
 Point Number:   1          Path Number:   1
   CHANGE IN THE REACTION COORDINATE =    0.14547
   NET REACTION COORDINATE UP TO THIS POINT =    0.14547
  # OF POINTS ALONG THE PATH =   1
  # OF STEPS =   1

 Calculating another point on the path.
 IRC-IRC-IRC-IRC-IRC-IRC-IRC-IRC-IRC-IRC-IRC-IRC-IRC-IRC-IRC-IRC-IRC-IRC
                          Input orientation:                          
 ---------------------------------------------------------------------
 Center     Atomic      Atomic             Coordinates (Angstroms)
 Number     Number       Type             X           Y           Z
 ---------------------------------------------------------------------
      1          1           0        4.415040    0.756262    0.577656
      2          1           0        4.415643    0.121648   -0.943637
      3          1           0        4.414732   -0.878416    0.366545
      4          1           0        1.876600   -0.851041   -0.652303
      5          1           0        1.876586   -0.139199    1.063213
      6          1           0        1.876514    0.990564   -0.411032
      7          7           0        4.052277   -0.000030   -0.000008
      8          6           0        1.769968    0.000110   -0.000037
      9         53           0       -0.764432   -0.000006    0.000001
 ---------------------------------------------------------------------
                    Distance matrix (angstroms):
                    1          2          3          4          5
     1  H    0.000000
     2  H    1.648354   0.000000
     3  H    1.648254   1.648244   0.000000
     4  H    3.246522   2.734545   2.735126   0.000000
     5  H    2.735209   3.246891   2.733857   1.857341   0.000000
     6  H    2.734322   2.736030   3.246577   1.857343   1.857354
     7  N    1.018465   1.018467   1.018478   2.425547   2.425581
     8  C    2.811033   2.811539   2.810866   1.077627   1.077625
     9  I    5.266171   5.266728   5.265899   2.850406   2.850398
                    6          7          8          9
     6  H    0.000000
     7  N    2.425729   0.000000
     8  C    1.077621   2.282310   0.000000
     9  I    2.850399   4.816709   2.534400   0.000000
 Symmetry turned off by external request.
 Stoichiometry    CH6IN
 Framework group  C1[X(CH6IN)]
 Deg. of freedom    21
 Full point group                 C1      NOp   1
 Rotational constants (GHZ):          81.3182700           1.2195891           1.2195885
 Basis read from rwf:  (5D, 7F)
 Pseudo-potential data read from rwf file.
    59 basis functions,   107 primitive gaussians,    61 cartesian basis functions
    13 alpha electrons       13 beta electrons
       nuclear repulsion energy        61.0875736054 Hartrees.
 NAtoms=    9 NActive=    9 NUniq=    9 SFac= 1.00D+00 NAtFMM=   60 NAOKFM=F Big=F
 Integral buffers will be    131072 words long.
 Raffenetti 2 integral format.
 Two-electron integral symmetry is turned off.
 Nuclear repulsion after empirical dispersion term =       61.0784718793 Hartrees.
 Force inversion solution in PCM.
 ------------------------------------------------------------------------------
 Polarizable Continuum Model (PCM)
 =================================
 Model                : PCM.
 Atomic radii         : UFF (Universal Force Field).
 Polarization charges : Total charges.
 Charge compensation  : None.
 Solution method      : Matrix inversion.
 Cavity type          : Scaled VdW (van der Waals Surface) (Alpha=1.100).
 Cavity algorithm     : GePol (No added spheres)
                        Default sphere list used, NSphG=    9.
                        Lebedev-Laikov grids with approx.  5.0 points / Ang**2.
                        Smoothing algorithm: York/Karplus (Gamma=1.0000).
                        Polarization charges: spherical gaussians, with
                                              point-specific exponents (IZeta= 3).
                        Self-potential: point-specific (ISelfS= 7).
                        Self-field    : sphere-specific E.n sum rule (ISelfD= 2).
 1st derivatives      : Analytical E(r).r(x)/FMM algorithm (CHGder, D1EAlg=3).
                        Cavity 1st derivative terms included.
 Solvent              : Water, Eps=  78.355300 Eps(inf)=   1.777849
 ------------------------------------------------------------------------------
 Spheres list:
 ISph  on   Nord     Re0    Alpha      Xe            Ye            Ze
    1   H      1    1.4430  1.100      4.415040      0.756262      0.577656
    2   H      2    1.4430  1.100      4.415643      0.121648     -0.943637
    3   H      3    1.4430  1.100      4.414732     -0.878416      0.366545
    4   H      4    1.4430  1.100      1.876600     -0.851041     -0.652303
    5   H      5    1.4430  1.100      1.876586     -0.139199      1.063213
    6   H      6    1.4430  1.100      1.876514      0.990564     -0.411032
    7   N      7    1.8300  1.100      4.052277     -0.000030     -0.000008
    8   C      8    1.9255  1.100      1.769968      0.000110     -0.000037
    9   I      9    2.2500  1.100     -0.764432     -0.000006      0.000001
 ------------------------------------------------------------------------------
 One-electron integrals computed using PRISM.
   1 Symmetry operations used in ECPInt.
 ECPInt:  NShTT=     406 NPrTT=    1771 LenC2=     407 LenP2D=    1541.
 LDataN:  DoStor=T MaxTD1= 6 Len=  172
 NBasis=    59 RedAO= T EigKep=  1.40D-02  NBF=    59
 NBsUse=    59 1.00D-06 EigRej= -1.00D+00 NBFU=    59
 Defaulting to unpruned grid for atomic number  53.
 Initial guess from the checkpoint file:  "example.chk"
 B after Tr=     0.000003   -0.000003    0.000001
         Rot=    1.000000    0.000091    0.000003   -0.000000 Ang=   0.01 deg.
 ExpMin= 1.09D-02 ExpMax= 4.17D+03 ExpMxC= 6.27D+02 IAcc=3 IRadAn=         5 AccDes= 0.00D+00
 Harris functional with IExCor=  402 and IRadAn=       5 diagonalized for initial guess.
 HarFok:  IExCor=  402 AccDes= 0.00D+00 IRadAn=         5 IDoV= 1 UseB2=F ITyADJ=14
 ICtDFT=  3500011 ScaDFX=  1.000000  1.000000  1.000000  1.000000
 Defaulting to unpruned grid for atomic number  53.
 FoFCou: FMM=F IPFlag=           0 FMFlag=      100000 FMFlg1=           0
         NFxFlg=           0 DoJE=T BraDBF=F KetDBF=T FulRan=T
         wScrn=  0.000000 ICntrl=       500 IOpCl=  0 I1Cent=   200000004 NGrid=           0
         NMat0=    1 NMatS0=      1 NMatT0=    0 NMatD0=    1 NMtDS0=    0 NMtDT0=    0
 Symmetry not used in FoFCou.
 Keep R1 ints in memory in canonical form, NReq=15709751.
 Requested convergence on RMS density matrix=1.00D-08 within 128 cycles.
 Requested convergence on MAX density matrix=1.00D-06.
 Requested convergence on             energy=1.00D-06.
 No special actions if energy rises.
 Defaulting to unpruned grid for atomic number  53.
 Defaulting to unpruned grid for atomic number  53.
 Defaulting to unpruned grid for atomic number  53.
 Defaulting to unpruned grid for atomic number  53.
 Defaulting to unpruned grid for atomic number  53.
 Defaulting to unpruned grid for atomic number  53.
 Defaulting to unpruned grid for atomic number  53.
 Defaulting to unpruned grid for atomic number  53.
 Defaulting to unpruned grid for atomic number  53.
 Defaulting to unpruned grid for atomic number  53.
 Defaulting to unpruned grid for atomic number  53.
 Defaulting to unpruned grid for atomic number  53.
 Defaulting to unpruned grid for atomic number  53.
 Defaulting to unpruned grid for atomic number  53.
 Defaulting to unpruned grid for atomic number  53.
 Defaulting to unpruned grid for atomic number  53.
 Inv3:  Mode=1 IEnd=     3084588.
 Iteration    1 A*A^-1 deviation from unit magnitude is 3.11D-15 for    214.
 Iteration    1 A*A^-1 deviation from orthogonality  is 2.12D-15 for    479    192.
 Iteration    1 A^-1*A deviation from unit magnitude is 3.33D-15 for    249.
 Iteration    1 A^-1*A deviation from orthogonality  is 1.32D-15 for    480    102.
 Error on total polarization charges =  0.02312
 SCF Done:  E(RB3LYP) =  -107.889758144     A.U. after    9 cycles
            NFock=  9  Conv=0.41D-08     -V/T= 2.0876
 DoSCS=F DFT=T ScalE2(SS,OS)=  1.000000  1.000000
 Range of M.O.s used for correlation:     1    59
 NBasis=    59 NAE=    13 NBE=    13 NFC=     0 NFV=     0
 NROrb=     59 NOA=    13 NOB=    13 NVA=    46 NVB=    46
 Symmetrizing basis deriv contribution to polar:
 IMax=3 JMax=2 DiffMx= 0.00D+00
   1 Symmetry operations used in ECPInt.
 ECPInt:  NShTT=     406 NPrTT=    1771 LenC2=     407 LenP2D=    1541.
 LDataN:  DoStor=T MaxTD1= 7 Len=  274
 D1PCM: PCM CHGder 1st derivatives, ID1Alg=3 FixD1E=F DoIter=F DoCFld=F I1PDM=0.
 Calling FoFJK, ICntrl=      2147 FMM=F ISym2X=0 I1Cent= 0 IOpClX= 0 NMat=1 NMatS=1 NMatT=0.
 Defaulting to unpruned grid for atomic number  53.
 Defaulting to unpruned grid for atomic number  53.
 Defaulting to unpruned grid for atomic number  53.
 Defaulting to unpruned grid for atomic number  53.
 Defaulting to unpruned grid for atomic number  53.
 Defaulting to unpruned grid for atomic number  53.
 Defaulting to unpruned grid for atomic number  53.
 Defaulting to unpruned grid for atomic number  53.
 Defaulting to unpruned grid for atomic number  53.
 Defaulting to unpruned grid for atomic number  53.
 Defaulting to unpruned grid for atomic number  53.
 Defaulting to unpruned grid for atomic number  53.
 Defaulting to unpruned grid for atomic number  53.
 Defaulting to unpruned grid for atomic number  53.
 Defaulting to unpruned grid for atomic number  53.
 Defaulting to unpruned grid for atomic number  53.
 -------------------------------------------------------------------
 Center     Atomic                   Forces (Hartrees/Bohr)
 Number     Number              X              Y              Z
 -------------------------------------------------------------------
      1        1           0.000212611   -0.000002130   -0.000004512
      2        1           0.000216746   -0.000002699    0.000005375
      3        1           0.000213885    0.000005680    0.000000312
      4        1          -0.000103162    0.000164716    0.000128440
      5        1          -0.000101481    0.000028151   -0.000205698
      6        1          -0.000102304   -0.000190333    0.000077754
      7        7           0.002359995    0.000001095    0.000001817
      8        6          -0.005447895   -0.000007534   -0.000002452
      9       53           0.002751606    0.000003055   -0.000001037
 -------------------------------------------------------------------
 Cartesian Forces:  Max     0.005447895 RMS     0.001263724
 IRC-IRC-IRC-IRC-IRC-IRC-IRC-IRC-IRC-IRC-IRC-IRC-IRC-IRC-IRC-IRC-IRC-IRC
 Pt  2 Step number   1 out of a maximum of  20
 Modified Bulirsch-Stoer Extrapolation Cycles:
    EPS =    0.000010000000000
      PEZero:  N= 2 I= 1 D=  7.57D-04 Err=  2.94D-06
 Maximum DWI energy   std dev =  0.000000800 at pt    47
 Maximum DWI gradient std dev =  0.062256380 at pt    27
 CORRECTOR INTEGRATION CONVERGENCE:
   Recorrection delta-x convergence threshold:    0.010000
   Delta-x Convergence Met
 Point Number:   2          Path Number:   1
   CHANGE IN THE REACTION COORDINATE =    0.14543
   NET REACTION COORDINATE UP TO THIS POINT =    0.29090
  # OF POINTS ALONG THE PATH =   2
  # OF STEPS =   1

 Calculating another point on the path.
 IRC-IRC-IRC-IRC-IRC-IRC-IRC-IRC-IRC-IRC-IRC-IRC-IRC-IRC-IRC-IRC-IRC-IRC
                          Input orientation:                          
 ---------------------------------------------------------------------
 Center     Atomic      Atomic             Coordinates (Angstroms)
 Number     Number       Type             X           Y           Z
 ---------------------------------------------------------------------
      1          1           0        4.423849    0.755871    0.577255
      2          1           0        4.424594    0.121488   -0.943041
      3          1           0        4.423583   -0.877838    0.366441
      4          1           0        1.873596   -0.849842   -0.651292
      5          1           0        1.873623   -0.138943    1.061659
      6          1           0        1.873516    0.989083   -0.410490
      7          7           0        4.059601   -0.000028   -0.000008
      8          6           0        1.749993    0.000100   -0.000039
      9         53           0       -0.763490   -0.000005    0.000000
 ---------------------------------------------------------------------
                    Distance matrix (angstroms):
                    1          2          3          4          5
     1  H    0.000000
     2  H    1.647344   0.000000
     3  H    1.647255   1.647239   0.000000
     4  H    3.254448   2.745212   2.745724   0.000000
     5  H    2.745723   3.254858   2.744375   1.854611   0.000000
     6  H    2.744854   2.746695   3.254514   1.854624   1.854633
     7  N    1.018475   1.018478   1.018488   2.434127   2.434119
     8  C    2.837950   2.838570   2.837810   1.077873   1.077877
     9  I    5.273808   5.274496   5.273576   2.846160   2.846188
                    6          7          8          9
     6  H    0.000000
     7  N    2.434298   0.000000
     8  C    1.077875   2.309608   0.000000
     9  I    2.846155   4.823091   2.513483   0.000000
 Symmetry turned off by external request.
 Stoichiometry    CH6IN
 Framework group  C1[X(CH6IN)]
 Deg. of freedom    21
 Full point group                 C1      NOp   1
 Rotational constants (GHZ):          81.4956346           1.2195830           1.2195825
 Basis read from rwf:  (5D, 7F)
 Pseudo-potential data read from rwf file.
    59 basis functions,   107 primitive gaussians,    61 cartesian basis functions
    13 alpha electrons       13 beta electrons
       nuclear repulsion energy        60.9867481800 Hartrees.
 NAtoms=    9 NActive=    9 NUniq=    9 SFac= 1.00D+00 NAtFMM=   60 NAOKFM=F Big=F
 Integral buffers will be    131072 words long.
 Raffenetti 2 integral format.
 Two-electron integral symmetry is turned off.
 Nuclear repulsion after empirical dispersion term =       60.9776652849 Hartrees.
 Force inversion solution in PCM.
 ------------------------------------------------------------------------------
 Polarizable Continuum Model (PCM)
 =================================
 Model                : PCM.
 Atomic radii         : UFF (Universal Force Field).
 Polarization charges : Total charges.
 Charge compensation  : None.
 Solution method      : Matrix inversion.
 Cavity type          : Scaled VdW (van der Waals Surface) (Alpha=1.100).
 Cavity algorithm     : GePol (No added spheres)
                        Default sphere list used, NSphG=    9.
                        Lebedev-Laikov grids with approx.  5.0 points / Ang**2.
                        Smoothing algorithm: York/Karplus (Gamma=1.0000).
                        Polarization charges: spherical gaussians, with
                                              point-specific exponents (IZeta= 3).
                        Self-potential: point-specific (ISelfS= 7).
                        Self-field    : sphere-specific E.n sum rule (ISelfD= 2).
 1st derivatives      : Analytical E(r).r(x)/FMM algorithm (CHGder, D1EAlg=3).
                        Cavity 1st derivative terms included.
 Solvent              : Water, Eps=  78.355300 Eps(inf)=   1.777849
 ------------------------------------------------------------------------------
 Spheres list:
 ISph  on   Nord     Re0    Alpha      Xe            Ye            Ze
    1   H      1    1.4430  1.100      4.423849      0.755871      0.577255
    2   H      2    1.4430  1.100      4.424594      0.121488     -0.943041
    3   H      3    1.4430  1.100      4.423583     -0.877838      0.366441
    4   H      4    1.4430  1.100      1.873596     -0.849842     -0.651292
    5   H      5    1.4430  1.100      1.873623     -0.138943      1.061659
    6   H      6    1.4430  1.100      1.873516      0.989083     -0.410490
    7   N      7    1.8300  1.100      4.059601     -0.000028     -0.000008
    8   C      8    1.9255  1.100      1.749993      0.000100     -0.000039
    9   I      9    2.2500  1.100     -0.763490     -0.000005      0.000000
 ------------------------------------------------------------------------------
 One-electron integrals computed using PRISM.
   1 Symmetry operations used in ECPInt.
 ECPInt:  NShTT=     406 NPrTT=    1771 LenC2=     407 LenP2D=    1541.
 LDataN:  DoStor=T MaxTD1= 6 Len=  172
 NBasis=    59 RedAO= T EigKep=  1.40D-02  NBF=    59
 NBsUse=    59 1.00D-06 EigRej= -1.00D+00 NBFU=    59
 Defaulting to unpruned grid for atomic number  53.
 Initial guess from the checkpoint file:  "example.chk"
 B after Tr=    -0.000027   -0.000000    0.000000
         Rot=    1.000000    0.000039    0.000001   -0.000000 Ang=   0.00 deg.
 ExpMin= 1.09D-02 ExpMax= 4.17D+03 ExpMxC= 6.27D+02 IAcc=3 IRadAn=         5 AccDes= 0.00D+00
 Harris functional with IExCor=  402 and IRadAn=       5 diagonalized for initial guess.
 HarFok:  IExCor=  402 AccDes= 0.00D+00 IRadAn=         5 IDoV= 1 UseB2=F ITyADJ=14
 ICtDFT=  3500011 ScaDFX=  1.000000  1.000000  1.000000  1.000000
 Defaulting to unpruned grid for atomic number  53.
 FoFCou: FMM=F IPFlag=           0 FMFlag=      100000 FMFlg1=           0
         NFxFlg=           0 DoJE=T BraDBF=F KetDBF=T FulRan=T
         wScrn=  0.000000 ICntrl=       500 IOpCl=  0 I1Cent=   200000004 NGrid=           0
         NMat0=    1 NMatS0=      1 NMatT0=    0 NMatD0=    1 NMtDS0=    0 NMtDT0=    0
 Symmetry not used in FoFCou.
 Keep R1 ints in memory in canonical form, NReq=15709751.
 Requested convergence on RMS density matrix=1.00D-08 within 128 cycles.
 Requested convergence on MAX density matrix=1.00D-06.
 Requested convergence on             energy=1.00D-06.
 No special actions if energy rises.
 Defaulting to unpruned grid for atomic number  53.
 Defaulting to unpruned grid for atomic number  53.
 Defaulting to unpruned grid for atomic number  53.
 Defaulting to unpruned grid for atomic number  53.
 Defaulting to unpruned grid for atomic number  53.
 Defaulting to unpruned grid for atomic number  53.
 Defaulting to unpruned grid for atomic number  53.
 Defaulting to unpruned grid for atomic number  53.
 Defaulting to unpruned grid for atomic number  53.
 Defaulting to unpruned grid for atomic number  53.
 Defaulting to unpruned grid for atomic number  53.
 Defaulting to unpruned grid for atomic number  53.
 Defaulting to unpruned grid for atomic number  53.
 Defaulting to unpruned grid for atomic number  53.
 Defaulting to unpruned grid for atomic number  53.
 Defaulting to unpruned grid for atomic number  53.
 Inv3:  Mode=1 IEnd=     3084588.
 Iteration    1 A*A^-1 deviation from unit magnitude is 2.66D-15 for     70.
 Iteration    1 A*A^-1 deviation from orthogonality  is 2.15D-15 for    502    221.
 Iteration    1 A^-1*A deviation from unit magnitude is 3.11D-15 for    210.
 Iteration    1 A^-1*A deviation from orthogonality  is 1.36D-15 for    642    290.
 Error on total polarization charges =  0.02279
 SCF Done:  E(RB3LYP) =  -107.890069990     A.U. after    9 cycles
            NFock=  9  Conv=0.38D-08     -V/T= 2.0876
 DoSCS=F DFT=T ScalE2(SS,OS)=  1.000000  1.000000
 Range of M.O.s used for correlation:     1    59
 NBasis=    59 NAE=    13 NBE=    13 NFC=     0 NFV=     0
 NROrb=     59 NOA=    13 NOB=    13 NVA=    46 NVB=    46
 Symmetrizing basis deriv contribution to polar:
 IMax=3 JMax=2 DiffMx= 0.00D+00
   1 Symmetry operations used in ECPInt.
 ECPInt:  NShTT=     406 NPrTT=    1771 LenC2=     407 LenP2D=    1541.
 LDataN:  DoStor=T MaxTD1= 7 Len=  274
 D1PCM: PCM CHGder 1st derivatives, ID1Alg=3 FixD1E=F DoIter=F DoCFld=F I1PDM=0.
 Calling FoFJK, ICntrl=      2147 FMM=F ISym2X=0 I1Cent= 0 IOpClX= 0 NMat=1 NMatS=1 NMatT=0.
 Defaulting to unpruned grid for atomic number  53.
 Defaulting to unpruned grid for atomic number  53.
 Defaulting to unpruned grid for atomic number  53.
 Defaulting to unpruned grid for atomic number  53.
 Defaulting to unpruned grid for atomic number  53.
 Defaulting to unpruned grid for atomic number  53.
 Defaulting to unpruned grid for atomic number  53.
 Defaulting to unpruned grid for atomic number  53.
 Defaulting to unpruned grid for atomic number  53.
 Defaulting to unpruned grid for atomic number  53.
 Defaulting to unpruned grid for atomic number  53.
 Defaulting to unpruned grid for atomic number  53.
 Defaulting to unpruned grid for atomic number  53.
 Defaulting to unpruned grid for atomic number  53.
 Defaulting to unpruned grid for atomic number  53.
 Defaulting to unpruned grid for atomic number  53.
 -------------------------------------------------------------------
 Center     Atomic                   Forces (Hartrees/Bohr)
 Number     Number              X              Y              Z
 -------------------------------------------------------------------
      1        1           0.000291776   -0.000007535   -0.000007748
      2        1           0.000295954   -0.000003062    0.000011658
      3        1           0.000292262    0.000011278   -0.000001478
      4        1          -0.000137282    0.000159348    0.000123844
      5        1          -0.000137066    0.000026906   -0.000202514
      6        1          -0.000137886   -0.000189195    0.000077037
      7        7           0.003328368    0.000000725    0.000000209
      8        6          -0.007722168   -0.000001902   -0.000001022
      9       53           0.003926043    0.000003438    0.000000013
 -------------------------------------------------------------------
 Cartesian Forces:  Max     0.007722168 RMS     0.001790542
 IRC-IRC-IRC-IRC-IRC-IRC-IRC-IRC-IRC-IRC-IRC-IRC-IRC-IRC-IRC-IRC-IRC-IRC
 Pt  3 Step number   1 out of a maximum of  20
 Modified Bulirsch-Stoer Extrapolation Cycles:
    EPS =    0.000010000000000
      PEZero:  N= 2 I= 1 D=  7.58D-04 Err=  2.61D-06
 Maximum DWI energy   std dev =  0.000000851 at pt    47
 Maximum DWI gradient std dev =  0.035975358 at pt    28
 CORRECTOR INTEGRATION CONVERGENCE:
   Recorrection delta-x convergence threshold:    0.010000
   Delta-x Convergence Met
 Point Number:   3          Path Number:   1
   CHANGE IN THE REACTION COORDINATE =    0.14544
   NET REACTION COORDINATE UP TO THIS POINT =    0.43634
  # OF POINTS ALONG THE PATH =   3
  # OF STEPS =   1

 Calculating another point on the path.
 IRC-IRC-IRC-IRC-IRC-IRC-IRC-IRC-IRC-IRC-IRC-IRC-IRC-IRC-IRC-IRC-IRC-IRC
                          Input orientation:                          
 ---------------------------------------------------------------------
 Center     Atomic      Atomic             Coordinates (Angstroms)
 Number     Number       Type             X           Y           Z
 ---------------------------------------------------------------------
      1          1           0        4.432661    0.755451    0.576888
      2          1           0        4.433527    0.121366   -0.942448
      3          1           0        4.432404   -0.877287    0.366300
      4          1           0        1.870160   -0.848496   -0.650226
      5          1           0        1.870203   -0.138711    1.059938
      6          1           0        1.870068    0.987468   -0.409854
      7          7           0        4.066898   -0.000026   -0.000009
      8          6           0        1.730032    0.000091   -0.000044
      9         53           0       -0.762536   -0.000004    0.000000
 ---------------------------------------------------------------------
                    Distance matrix (angstroms):
                    1          2          3          4          5
     1  H    0.000000
     2  H    1.646343   0.000000
     3  H    1.646263   1.646248   0.000000
     4  H    3.262647   2.756243   2.756673   0.000000
     5  H    2.756638   3.263099   2.755268   1.851608   0.000000
     6  H    2.755790   2.757736   3.262713   1.851632   1.851639
     7  N    1.018498   1.018501   1.018510   2.443019   2.442987
     8  C    2.864895   2.865609   2.864753   1.078179   1.078182
     9  I    5.281438   5.282235   5.281212   2.841447   2.841483
                    6          7          8          9
     6  H    0.000000
     7  N    2.443191   0.000000
     8  C    1.078178   2.336866   0.000000
     9  I    2.841423   4.829434   2.492569   0.000000
 Symmetry turned off by external request.
 Stoichiometry    CH6IN
 Framework group  C1[X(CH6IN)]
 Deg. of freedom    21
 Full point group                 C1      NOp   1
 Rotational constants (GHZ):          81.6865199           1.2195739           1.2195736
 Basis read from rwf:  (5D, 7F)
 Pseudo-potential data read from rwf file.
    59 basis functions,   107 primitive gaussians,    61 cartesian basis functions
    13 alpha electrons       13 beta electrons
       nuclear repulsion energy        60.8902583904 Hartrees.
 NAtoms=    9 NActive=    9 NUniq=    9 SFac= 1.00D+00 NAtFMM=   60 NAOKFM=F Big=F
 Integral buffers will be    131072 words long.
 Raffenetti 2 integral format.
 Two-electron integral symmetry is turned off.
 Nuclear repulsion after empirical dispersion term =       60.8811947332 Hartrees.
 Force inversion solution in PCM.
 ------------------------------------------------------------------------------
 Polarizable Continuum Model (PCM)
 =================================
 Model                : PCM.
 Atomic radii         : UFF (Universal Force Field).
 Polarization charges : Total charges.
 Charge compensation  : None.
 Solution method      : Matrix inversion.
 Cavity type          : Scaled VdW (van der Waals Surface) (Alpha=1.100).
 Cavity algorithm     : GePol (No added spheres)
                        Default sphere list used, NSphG=    9.
                        Lebedev-Laikov grids with approx.  5.0 points / Ang**2.
                        Smoothing algorithm: York/Karplus (Gamma=1.0000).
                        Polarization charges: spherical gaussians, with
                                              point-specific exponents (IZeta= 3).
                        Self-potential: point-specific (ISelfS= 7).
                        Self-field    : sphere-specific E.n sum rule (ISelfD= 2).
 1st derivatives      : Analytical E(r).r(x)/FMM algorithm (CHGder, D1EAlg=3).
                        Cavity 1st derivative terms included.
 2nd derivatives      : Analytical E(r).r(xy)/FMM algorithm (CHGder, D2EAlg=3).
                        Cavity 2nd derivative terms included.
 Solvent              : Water, Eps=  78.355300 Eps(inf)=   1.777849
 ------------------------------------------------------------------------------
 Spheres list:
 ISph  on   Nord     Re0    Alpha      Xe            Ye            Ze
    1   H      1    1.4430  1.100      4.432661      0.755451      0.576888
    2   H      2    1.4430  1.100      4.433527      0.121366     -0.942448
    3   H      3    1.4430  1.100      4.432404     -0.877287      0.366300
    4   H      4    1.4430  1.100      1.870160     -0.848496     -0.650226
    5   H      5    1.4430  1.100      1.870203     -0.138711      1.059938
    6   H      6    1.4430  1.100      1.870068      0.987468     -0.409854
    7   N      7    1.8300  1.100      4.066898     -0.000026     -0.000009
    8   C      8    1.9255  1.100      1.730032      0.000091     -0.000044
    9   I      9    2.2500  1.100     -0.762536     -0.000004      0.000000
 ------------------------------------------------------------------------------
 One-electron integrals computed using PRISM.
   1 Symmetry operations used in ECPInt.
 ECPInt:  NShTT=     406 NPrTT=    1771 LenC2=     407 LenP2D=    1542.
 LDataN:  DoStor=T MaxTD1= 6 Len=  172
 NBasis=    59 RedAO= T EigKep=  1.40D-02  NBF=    59
 NBsUse=    59 1.00D-06 EigRej= -1.00D+00 NBFU=    59
 Defaulting to unpruned grid for atomic number  53.
 Initial guess from the checkpoint file:  "example.chk"
 B after Tr=    -0.000049   -0.000000    0.000000
         Rot=    1.000000    0.000018    0.000001    0.000000 Ang=   0.00 deg.
 ExpMin= 1.09D-02 ExpMax= 4.17D+03 ExpMxC= 6.27D+02 IAcc=3 IRadAn=         5 AccDes= 0.00D+00
 Harris functional with IExCor=  402 and IRadAn=       5 diagonalized for initial guess.
 HarFok:  IExCor=  402 AccDes= 0.00D+00 IRadAn=         5 IDoV= 1 UseB2=F ITyADJ=14
 ICtDFT=  3500011 ScaDFX=  1.000000  1.000000  1.000000  1.000000
 Defaulting to unpruned grid for atomic number  53.
 FoFCou: FMM=F IPFlag=           0 FMFlag=      100000 FMFlg1=           0
         NFxFlg=           0 DoJE=T BraDBF=F KetDBF=T FulRan=T
         wScrn=  0.000000 ICntrl=       500 IOpCl=  0 I1Cent=   200000004 NGrid=           0
         NMat0=    1 NMatS0=      1 NMatT0=    0 NMatD0=    1 NMtDS0=    0 NMtDT0=    0
 Symmetry not used in FoFCou.
 Keep R1 ints in memory in canonical form, NReq=15709751.
 Requested convergence on RMS density matrix=1.00D-08 within 128 cycles.
 Requested convergence on MAX density matrix=1.00D-06.
 Requested convergence on             energy=1.00D-06.
 No special actions if energy rises.
 Defaulting to unpruned grid for atomic number  53.
 Defaulting to unpruned grid for atomic number  53.
 Defaulting to unpruned grid for atomic number  53.
 Defaulting to unpruned grid for atomic number  53.
 Defaulting to unpruned grid for atomic number  53.
 Defaulting to unpruned grid for atomic number  53.
 Defaulting to unpruned grid for atomic number  53.
 Defaulting to unpruned grid for atomic number  53.
 Defaulting to unpruned grid for atomic number  53.
 Defaulting to unpruned grid for atomic number  53.
 Defaulting to unpruned grid for atomic number  53.
 Defaulting to unpruned grid for atomic number  53.
 Defaulting to unpruned grid for atomic number  53.
 Defaulting to unpruned grid for atomic number  53.
 Defaulting to unpruned grid for atomic number  53.
 Defaulting to unpruned grid for atomic number  53.
 Inv3:  Mode=1 IEnd=     3078507.
 Iteration    1 A*A^-1 deviation from unit magnitude is 2.89D-15 for     45.
 Iteration    1 A*A^-1 deviation from orthogonality  is 2.13D-15 for    634     26.
 Iteration    1 A^-1*A deviation from unit magnitude is 2.89D-15 for    556.
 Iteration    1 A^-1*A deviation from orthogonality  is 1.31D-15 for    361    314.
 Error on total polarization charges =  0.02249
 SCF Done:  E(RB3LYP) =  -107.890479917     A.U. after    9 cycles
            NFock=  9  Conv=0.35D-08     -V/T= 2.0876
 DoSCS=F DFT=T ScalE2(SS,OS)=  1.000000  1.000000
 Range of M.O.s used for correlation:     1    59
 NBasis=    59 NAE=    13 NBE=    13 NFC=     0 NFV=     0
 NROrb=     59 NOA=    13 NOB=    13 NVA=    46 NVB=    46
   1 Symmetry operations used in ECPInt.
 ECPInt:  NShTT=     406 NPrTT=    1771 LenC2=     407 LenP2D=    1542.
 LDataN:  DoStor=T MaxTD1= 7 Len=  274
 Symmetrizing basis deriv contribution to polar:
 IMax=3 JMax=2 DiffMx= 0.00D+00
 G2DrvN: will do    10 centers at a time, making    1 passes.
 Calling FoFCou, ICntrl=  3107 FMM=F I1Cent=   0 AccDes= 0.00D+00.
 Defaulting to unpruned grid for atomic number  53.
 Defaulting to unpruned grid for atomic number  53.
 Defaulting to unpruned grid for atomic number  53.
 Defaulting to unpruned grid for atomic number  53.
 Defaulting to unpruned grid for atomic number  53.
 Defaulting to unpruned grid for atomic number  53.
 Defaulting to unpruned grid for atomic number  53.
 Defaulting to unpruned grid for atomic number  53.
 Defaulting to unpruned grid for atomic number  53.
 Defaulting to unpruned grid for atomic number  53.
 Defaulting to unpruned grid for atomic number  53.
 Defaulting to unpruned grid for atomic number  53.
 Defaulting to unpruned grid for atomic number  53.
 Defaulting to unpruned grid for atomic number  53.
 Defaulting to unpruned grid for atomic number  53.
 Defaulting to unpruned grid for atomic number  53.
 NEqPCM:  Using equilibrium solvation (IEInf=0, Eps=  78.3553, EpsInf=   1.7778)
 G2PCM: DoFxE=T DoFxN=T DoGrad=T DoDP/DQ/DG/TGxP=FFFF NFrqRd=   0 IEInf=0 SqF1=F DoCFld=F IF1Alg=4.
 End of G2Drv F.D. properties file   721 does not exist.
 End of G2Drv F.D. properties file   722 does not exist.
 End of G2Drv F.D. properties file   788 does not exist.
          IDoAtm=111111111
 NEqPCM:  Using equilibrium solvation (IEInf=0, Eps=  78.3553, EpsInf=   1.7778)
          Differentiating once with respect to nuclear coordinates.
 Defaulting to unpruned grid for atomic number  53.
 Keep R1 ints in memory in canonical form, NReq=15662268.
 Defaulting to unpruned grid for atomic number  53.
 Defaulting to unpruned grid for atomic number  53.
 Defaulting to unpruned grid for atomic number  53.
 Defaulting to unpruned grid for atomic number  53.
 Defaulting to unpruned grid for atomic number  53.
 Defaulting to unpruned grid for atomic number  53.
 Defaulting to unpruned grid for atomic number  53.
 Defaulting to unpruned grid for atomic number  53.
 Defaulting to unpruned grid for atomic number  53.
 Defaulting to unpruned grid for atomic number  53.
 Defaulting to unpruned grid for atomic number  53.
 Defaulting to unpruned grid for atomic number  53.
 Defaulting to unpruned grid for atomic number  53.
 Defaulting to unpruned grid for atomic number  53.
 Defaulting to unpruned grid for atomic number  53.
 Defaulting to unpruned grid for atomic number  53.
          There are    30 degrees of freedom in the 1st order CPHF.  IDoFFX=6 NUNeed=     0.
     24 vectors produced by pass  0 Test12= 1.99D-15 3.33D-09 XBig12= 2.74D-02 8.08D-02.
 AX will form    24 AO Fock derivatives at one time.
     24 vectors produced by pass  1 Test12= 1.99D-15 3.33D-09 XBig12= 3.12D-03 1.89D-02.
     24 vectors produced by pass  2 Test12= 1.99D-15 3.33D-09 XBig12= 2.57D-05 1.29D-03.
     24 vectors produced by pass  3 Test12= 1.99D-15 3.33D-09 XBig12= 6.69D-08 8.54D-05.
     24 vectors produced by pass  4 Test12= 1.99D-15 3.33D-09 XBig12= 5.26D-11 2.72D-06.
      9 vectors produced by pass  5 Test12= 1.99D-15 3.33D-09 XBig12= 2.18D-14 3.75D-08.
 InvSVY:  IOpt=1 It=  1 EMax= 1.33D-15
 Solved reduced A of dimension   129 with    24 vectors.
 End of Minotr F.D. properties file   721 does not exist.
 End of Minotr F.D. properties file   722 does not exist.
 End of Minotr F.D. properties file   788 does not exist.
   1 Symmetry operations used in ECPInt.
 ECPInt:  NShTT=     406 NPrTT=    1771 LenC2=     407 LenP2D=    1542.
 LDataN:  DoStor=T MaxTD1= 8 Len=  415
 D2PCM: PCM CHGder 2nd derivatives, FixD1E=F FixD2E=F DoIter=F DoCFld=F I1PDM=0
 Calling FoFJK, ICntrl=    100147 FMM=F ISym2X=0 I1Cent= 0 IOpClX= 0 NMat=1 NMatS=1 NMatT=0.
 Defaulting to unpruned grid for atomic number  53.
 Defaulting to unpruned grid for atomic number  53.
 Defaulting to unpruned grid for atomic number  53.
 Defaulting to unpruned grid for atomic number  53.
 Defaulting to unpruned grid for atomic number  53.
 Defaulting to unpruned grid for atomic number  53.
 Defaulting to unpruned grid for atomic number  53.
 Defaulting to unpruned grid for atomic number  53.
 Defaulting to unpruned grid for atomic number  53.
 Defaulting to unpruned grid for atomic number  53.
 Defaulting to unpruned grid for atomic number  53.
 Defaulting to unpruned grid for atomic number  53.
 Defaulting to unpruned grid for atomic number  53.
 Defaulting to unpruned grid for atomic number  53.
 Defaulting to unpruned grid for atomic number  53.
 Defaulting to unpruned grid for atomic number  53.
 -------------------------------------------------------------------
 Center     Atomic                   Forces (Hartrees/Bohr)
 Number     Number              X              Y              Z
 -------------------------------------------------------------------
      1        1           0.000362331   -0.000011577   -0.000010432
      2        1           0.000366608   -0.000003676    0.000016967
      3        1           0.000361642    0.000015521   -0.000003248
      4        1          -0.000185857    0.000167357    0.000129383
      5        1          -0.000185431    0.000027712   -0.000210340
      6        1          -0.000185944   -0.000195700    0.000080273
      7        7           0.004145018    0.000000777   -0.000001015
      8        6          -0.009632386   -0.000004019   -0.000002363
      9       53           0.004954019    0.000003605    0.000000776
 -------------------------------------------------------------------
 Cartesian Forces:  Max     0.009632386 RMS     0.002237241
 IRC-IRC-IRC-IRC-IRC-IRC-IRC-IRC-IRC-IRC-IRC-IRC-IRC-IRC-IRC-IRC-IRC-IRC
 Pt  4 Step number   1 out of a maximum of  20
 Modified Bulirsch-Stoer Extrapolation Cycles:
    EPS =    0.000010000000000
      PEZero:  N= 2 I= 1 D=  7.58D-04 Err=  5.11D-06
 Maximum DWI energy   std dev =  0.000001053 at pt    33
 Maximum DWI gradient std dev =  0.017258576 at pt    33
 CORRECTOR INTEGRATION CONVERGENCE:
   Recorrection delta-x convergence threshold:    0.010000
   Delta-x Convergence Met
 Point Number:   4          Path Number:   1
   CHANGE IN THE REACTION COORDINATE =    0.14544
   NET REACTION COORDINATE UP TO THIS POINT =    0.58178
  # OF POINTS ALONG THE PATH =   4
  # OF STEPS =   1

 Calculating another point on the path.
 IRC-IRC-IRC-IRC-IRC-IRC-IRC-IRC-IRC-IRC-IRC-IRC-IRC-IRC-IRC-IRC-IRC-IRC
                          Input orientation:                          
 ---------------------------------------------------------------------
 Center     Atomic      Atomic             Coordinates (Angstroms)
 Number     Number       Type             X           Y           Z
 ---------------------------------------------------------------------
      1          1           0        4.441473    0.755030    0.576538
      2          1           0        4.442437    0.121253   -0.941873
      3          1           0        4.441186   -0.876764    0.366151
      4          1           0        1.866066   -0.846964   -0.649033
      5          1           0        1.866118   -0.138459    1.057999
      6          1           0        1.865966    0.985661   -0.409120
      7          7           0        4.074183   -0.000024   -0.000011
      8          6           0        1.710107    0.000084   -0.000049
      9         53           0       -0.761569   -0.000003    0.000001
 ---------------------------------------------------------------------
                    Distance matrix (angstroms):
                    1          2          3          4          5
     1  H    0.000000
     2  H    1.645371   0.000000
     3  H    1.645301   1.645286   0.000000
     4  H    3.271258   2.767830   2.768164   0.000000
     5  H    2.768136   3.271751   2.766717   1.848225   0.000000
     6  H    2.767299   2.769337   3.271304   1.848261   1.848265
     7  N    1.018537   1.018540   1.018547   2.452410   2.452366
     8  C    2.891843   2.892635   2.891670   1.078422   1.078425
     9  I    5.289056   5.289944   5.288803   2.836027   2.836066
                    6          7          8          9
     6  H    0.000000
     7  N    2.452583   0.000000
     8  C    1.078421   2.364076   0.000000
     9  I    2.835993   4.835752   2.471676   0.000000
 Symmetry turned off by external request.
 Stoichiometry    CH6IN
 Framework group  C1[X(CH6IN)]
 Deg. of freedom    21
 Full point group                 C1      NOp   1
 Rotational constants (GHZ):          81.8955604           1.2195627           1.2195625
 Basis read from rwf:  (5D, 7F)
 Pseudo-potential data read from rwf file.
    59 basis functions,   107 primitive gaussians,    61 cartesian basis functions
    13 alpha electrons       13 beta electrons
       nuclear repulsion energy        60.7988376483 Hartrees.
 NAtoms=    9 NActive=    9 NUniq=    9 SFac= 1.00D+00 NAtFMM=   60 NAOKFM=F Big=F
[...]
 Defaulting to unpruned grid for atomic number  53.
 NEqPCM:  Using equilibrium solvation (IEInf=0, Eps=  78.3553, EpsInf=   1.7778)
 G2PCM: DoFxE=T DoFxN=T DoGrad=T DoDP/DQ/DG/TGxP=FFFF NFrqRd=   0 IEInf=0 SqF1=F DoCFld=F IF1Alg=4.
 End of G2Drv F.D. properties file   721 does not exist.
 End of G2Drv F.D. properties file   722 does not exist.
 End of G2Drv F.D. properties file   788 does not exist.
          IDoAtm=111111111
 NEqPCM:  Using equilibrium solvation (IEInf=0, Eps=  78.3553, EpsInf=   1.7778)
          Differentiating once with respect to nuclear coordinates.
 Defaulting to unpruned grid for atomic number  53.
 Keep R1 ints in memory in canonical form, NReq=15662268.
 Defaulting to unpruned grid for atomic number  53.
 Defaulting to unpruned grid for atomic number  53.
 Defaulting to unpruned grid for atomic number  53.
 Defaulting to unpruned grid for atomic number  53.
 Defaulting to unpruned grid for atomic number  53.
 Defaulting to unpruned grid for atomic number  53.
 Defaulting to unpruned grid for atomic number  53.
 Defaulting to unpruned grid for atomic number  53.
 Defaulting to unpruned grid for atomic number  53.
 Defaulting to unpruned grid for atomic number  53.
 Defaulting to unpruned grid for atomic number  53.
 Defaulting to unpruned grid for atomic number  53.
 Defaulting to unpruned grid for atomic number  53.
 Defaulting to unpruned grid for atomic number  53.
 Defaulting to unpruned grid for atomic number  53.
 Defaulting to unpruned grid for atomic number  53.
          There are    30 degrees of freedom in the 1st order CPHF.  IDoFFX=6 NUNeed=     0.
     24 vectors produced by pass  0 Test12= 1.99D-15 3.33D-09 XBig12= 3.19D-02 4.91D-02.
 AX will form    24 AO Fock derivatives at one time.
     24 vectors produced by pass  1 Test12= 1.99D-15 3.33D-09 XBig12= 1.33D-03 1.00D-02.
     24 vectors produced by pass  2 Test12= 1.99D-15 3.33D-09 XBig12= 7.13D-06 8.15D-04.
     24 vectors produced by pass  3 Test12= 1.99D-15 3.33D-09 XBig12= 1.30D-08 3.54D-05.
     21 vectors produced by pass  4 Test12= 1.99D-15 3.33D-09 XBig12= 7.93D-12 6.47D-07.
      3 vectors produced by pass  5 Test12= 1.99D-15 3.33D-09 XBig12= 3.83D-15 1.64D-08.
 InvSVY:  IOpt=1 It=  1 EMax= 9.99D-16
 Solved reduced A of dimension   120 with    24 vectors.
 End of Minotr F.D. properties file   721 does not exist.
 End of Minotr F.D. properties file   722 does not exist.
 End of Minotr F.D. properties file   788 does not exist.
   1 Symmetry operations used in ECPInt.
 ECPInt:  NShTT=     406 NPrTT=    1771 LenC2=     407 LenP2D=    1560.
 LDataN:  DoStor=T MaxTD1= 8 Len=  415
 D2PCM: PCM CHGder 2nd derivatives, FixD1E=F FixD2E=F DoIter=F DoCFld=F I1PDM=0
 Calling FoFJK, ICntrl=    100147 FMM=F ISym2X=0 I1Cent= 0 IOpClX= 0 NMat=1 NMatS=1 NMatT=0.
 Defaulting to unpruned grid for atomic number  53.
 Defaulting to unpruned grid for atomic number  53.
 Defaulting to unpruned grid for atomic number  53.
 Defaulting to unpruned grid for atomic number  53.
 Defaulting to unpruned grid for atomic number  53.
 Defaulting to unpruned grid for atomic number  53.
 Defaulting to unpruned grid for atomic number  53.
 Defaulting to unpruned grid for atomic number  53.
 Defaulting to unpruned grid for atomic number  53.
 Defaulting to unpruned grid for atomic number  53.
 Defaulting to unpruned grid for atomic number  53.
 Defaulting to unpruned grid for atomic number  53.
 Defaulting to unpruned grid for atomic number  53.
 Defaulting to unpruned grid for atomic number  53.
 Defaulting to unpruned grid for atomic number  53.
 Defaulting to unpruned grid for atomic number  53.
 -------------------------------------------------------------------
 Center     Atomic                   Forces (Hartrees/Bohr)
 Number     Number              X              Y              Z
 -------------------------------------------------------------------
      1        1           0.000041647    0.000072110    0.000079298
      2        1           0.000060350    0.000039936   -0.000124612
      3        1           0.000049823   -0.000125123    0.000035946
      4        1           0.000006779   -0.000051587   -0.000075990
      5        1          -0.000003739   -0.000026451    0.000090170
      6        1          -0.000000482    0.000102835   -0.000016945
      7        7           0.000214133   -0.000004782    0.000010671
      8        6           0.000340012   -0.000003664   -0.000000191
      9       53          -0.000708522   -0.000003274    0.000001655
 -------------------------------------------------------------------
 Cartesian Forces:  Max     0.000708522 RMS     0.000166136
 IRC-IRC-IRC-IRC-IRC-IRC-IRC-IRC-IRC-IRC-IRC-IRC-IRC-IRC-IRC-IRC-IRC-IRC
 Pt125 Step number   1 out of a maximum of  20
 Modified Bulirsch-Stoer Extrapolation Cycles:
    EPS =    0.000010000000000
      PEZero:  N= 2 I= 1 D=  7.58D-04 Err=  1.41D-02
      PEZero:  N= 3 I= 2 D=  7.58D-04 Err=  2.09D-02
      PEZero:  N= 3 I= 1 D=  1.52D-03 Err=  1.72D-02
      PEZero:  N= 4 I= 3 D=  3.79D-04 Err=  3.29D-02
      PEZero:  N= 4 I= 2 D=  1.14D-03 Err=  2.30D-02
      PEZero:  N= 4 I= 1 D=  1.89D-03 Err=  1.73D-02
      PEZero:  N= 5 I= 4 D=  3.79D-04 Err=  4.43D-02
      PEZero:  N= 5 I= 3 D=  7.58D-04 Err=  3.35D-02
      PEZero:  N= 5 I= 2 D=  1.52D-03 Err=  2.20D-02
      PEZero:  N= 5 I= 1 D=  2.27D-03 Err=  1.62D-02
      PEZero:  N= 6 I= 5 D=  1.89D-04 Err=  2.55D-02
      PEZero:  N= 6 I= 4 D=  5.68D-04 Err=  1.03D-02
      PEZero:  N= 6 I= 3 D=  9.47D-04 Err=  3.24D-02
      PEZero:  N= 7 I= 6 D=  1.89D-04 Err=  5.72D-06
      PEZero:  N= 7 I= 5 D=  3.79D-04 Err=  2.55D-02
 Maximum DWI energy   std dev =  0.000000034 at pt    24
 Maximum DWI gradient std dev =  0.212132123 at pt   173
 CORRECTOR INTEGRATION CONVERGENCE:
   Recorrection delta-x convergence threshold:    0.010000
   Delta-x Convergence Met
 Point Number:  68          Path Number:   2
   CHANGE IN THE REACTION COORDINATE =    0.14540
   NET REACTION COORDINATE UP TO THIS POINT =    9.88652
  # OF POINTS ALONG THE PATH = 125
  # OF STEPS =   1

 PES minimum detected on this side of the pathway.
    Magnitude of the gradient =      0.0001421
 Calculation of REVERSE path complete.
 Reaction path calculation complete.
 
 Energies reported relative to the TS energy of        -107.889492
 --------------------------------------------------------------------------
    Summary of reaction path following
 --------------------------------------------------------------------------
                        Energy    RxCoord
   1                   -0.05002  -9.88652
   2                   -0.04999  -9.74113
   3                   -0.04997  -9.59570
   4                   -0.04994  -9.45029
   5                   -0.04990  -9.30487
   6                   -0.04987  -9.15944
   7                   -0.04982  -9.01401
   8                   -0.04978  -8.86858
   9                   -0.04973  -8.72314
  10                   -0.04967  -8.57770
  11                   -0.04961  -8.43225
  12                   -0.04954  -8.28680
  13                   -0.04947  -8.14134
  14                   -0.04939  -7.99589
  15                   -0.04930  -7.85043
  16                   -0.04921  -7.70498
  17                   -0.04911  -7.55952
  18                   -0.04900  -7.41406
  19                   -0.04888  -7.26861
  20                   -0.04876  -7.12315
  21                   -0.04862  -6.97769
  22                   -0.04848  -6.83223
  23                   -0.04832  -6.68678
  24                   -0.04815  -6.54132
  25                   -0.04798  -6.39586
  26                   -0.04779  -6.25040
  27                   -0.04758  -6.10495
  28                   -0.04737  -5.95949
  29                   -0.04714  -5.81403
  30                   -0.04690  -5.66857
  31                   -0.04664  -5.52312
  32                   -0.04636  -5.37766
  33                   -0.04607  -5.23220
  34                   -0.04576  -5.08674
  35                   -0.04543  -4.94129
  36                   -0.04509  -4.79583
  37                   -0.04472  -4.65037
  38                   -0.04434  -4.50491
  39                   -0.04393  -4.35946
  40                   -0.04350  -4.21400
  41                   -0.04305  -4.06855
  42                   -0.04257  -3.92326
  43                   -0.04204  -3.77911
  44                   -0.04135  -3.63560
  45                   -0.04030  -3.49068
  46                   -0.03885  -3.34533
  47                   -0.03705  -3.19990
  48                   -0.03495  -3.05446
  49                   -0.03264  -2.90901
  50                   -0.03017  -2.76355
  51                   -0.02760  -2.61810
  52                   -0.02499  -2.47265
  53                   -0.02239  -2.32719
  54                   -0.01983  -2.18174
  55                   -0.01735  -2.03629
  56                   -0.01498  -1.89084
  57                   -0.01275  -1.74539
  58                   -0.01067  -1.59993
  59                   -0.00875  -1.45448
  60                   -0.00702  -1.30903
  61                   -0.00548  -1.16358
  62                   -0.00414  -1.01814
  63                   -0.00299  -0.87269
  64                   -0.00204  -0.72724
  65                   -0.00128  -0.58179
  66                   -0.00070  -0.43635
  67                   -0.00031  -0.29091
  68                   -0.00007  -0.14548
  69                    0.00000   0.00000
  70                   -0.00007   0.14547
  71                   -0.00027   0.29090
  72                   -0.00058   0.43634
  73                   -0.00099   0.58178
  74                   -0.00148   0.72723
  75                   -0.00204   0.87268
  76                   -0.00264   1.01813
  77                   -0.00328   1.16358
  78                   -0.00393   1.30903
  79                   -0.00459   1.45448
  80                   -0.00523   1.59993
  81                   -0.00584   1.74538
  82                   -0.00641   1.89082
  83                   -0.00693   2.03624
  84                   -0.00738   2.18163
  85                   -0.00777   2.32695
  86                   -0.00809   2.47213
  87                   -0.00835   2.61721
  88                   -0.00858   2.76232
  89                   -0.00878   2.90760
  90                   -0.00896   3.05300
  91                   -0.00912   3.19845
  92                   -0.00927   3.34390
  93                   -0.00940   3.48936
  94                   -0.00953   3.63481
  95                   -0.00964   3.78027
  96                   -0.00974   3.92573
  97                   -0.00984   4.07118
  98                   -0.00992   4.21664
  99                   -0.01000   4.36209
 100                   -0.01006   4.50754
 101                   -0.01012   4.65298
 102                   -0.01018   4.79841
 103                   -0.01023   4.94379
 104                   -0.01027   5.08910
 105                   -0.01032   5.23418
 106                   -0.01036   5.37933
 107                   -0.01041   5.52456
 108                   -0.01046   5.66992
 109                   -0.01052   5.81472
 110                   -0.01058   5.96014
 111                   -0.01066   6.10549
 112                   -0.01074   6.25085
 113                   -0.01083   6.39597
 114                   -0.01093   6.54139
 115                   -0.01102   6.68674
 116                   -0.01112   6.83209
 117                   -0.01122   6.97733
 118                   -0.01131   7.12272
 119                   -0.01140   7.26806
 120                   -0.01148   7.41339
 121                   -0.01155   7.55851
 122                   -0.01161   7.70347
 123                   -0.01166   7.84850
 124                   -0.01170   7.99327
 125                   -0.01173   8.13792
 126                   -0.01176   8.28189
 --------------------------------------------------------------------------
 
 Total number of points:                  125
 Total number of gradient calculations:   132
 Total number of Hessian calculations:     32
 IRC-IRC-IRC-IRC-IRC-IRC-IRC-IRC-IRC-IRC-IRC-IRC-IRC-IRC-IRC-IRC-IRC-IRC
                          Input orientation:                          
 ---------------------------------------------------------------------
 Center     Atomic      Atomic             Coordinates (Angstroms)
 Number     Number       Type             X           Y           Z
 ---------------------------------------------------------------------
      1          1           0        4.725834    0.669318    0.649020
      2          1           0        4.694574    0.224556   -0.939707
      3          1           0        4.701626   -0.929063    0.240152
      4          1           0        2.464089   -0.727952   -0.700633
      5          1           0        2.495842   -0.241621    1.019356
      6          1           0        2.488664    1.005185   -0.262476
      7          7           0        4.330057   -0.007549   -0.010575
      8          6           0        2.825104    0.008478    0.013440
      9         53           0       -0.916256    0.000028   -0.000149
 ---------------------------------------------------------------------
                    Distance matrix (angstroms):
                    1          2          3          4          5
     1  H    0.000000
     2  H    1.650104   0.000000
     3  H    1.650024   1.650137   0.000000
     4  H    2.981512   2.437107   2.435588   0.000000
     5  H    2.437175   2.981556   2.438282   1.787706   0.000000
     6  H    2.438968   2.435993   2.981803   1.787833   1.788203
     7  N    1.024623   1.024711   1.024751   2.115892   2.116576
     8  C    2.110319   2.109526   2.109909   1.087456   1.087580
     9  I    5.718614   5.693381   5.699258   3.528082   3.569341
                    6          7          8          9
     6  H    0.000000
     7  N    2.116557   0.000000
     8  C    1.087541   1.505230   0.000000
     9  I    3.559864   5.246329   3.741394   0.000000
 Symmetry turned off by external request.
 Stoichiometry    CH6IN
 Framework group  C1[X(CH6IN)]
 Deg. of freedom    21
 Full point group                 C1      NOp   1
 Rotational constants (GHZ):          84.6158041           0.9130929           0.9130834

 **********************************************************************

            Population analysis using the SCF density.

 **********************************************************************

 Alpha  occ. eigenvalues --  -14.46632 -10.24500  -1.01769  -0.73776  -0.60260
 Alpha  occ. eigenvalues --   -0.59949  -0.59946  -0.50806  -0.43140  -0.43129
 Alpha  occ. eigenvalues --   -0.21938  -0.21937  -0.21862
 Alpha virt. eigenvalues --   -0.01307   0.01166   0.01170   0.01788   0.02926
 Alpha virt. eigenvalues --    0.06953   0.06955   0.07402   0.08517   0.08521
 Alpha virt. eigenvalues --    0.10733   0.14372   0.14484   0.14509   0.17503
 Alpha virt. eigenvalues --    0.17530   0.21410   0.31770   0.54804   0.57616
 Alpha virt. eigenvalues --    0.57648   0.74954   0.74956   0.77689   0.85340
 Alpha virt. eigenvalues --    0.85410   0.88236   0.88247   0.88891   0.89007
 Alpha virt. eigenvalues --    0.93993   1.00907   1.05606   1.12418   1.41229
 Alpha virt. eigenvalues --    1.41237   1.57903   1.91320   1.94263   1.94281
 Alpha virt. eigenvalues --    2.23654   2.23662   2.33993   2.34018   2.59178
 Alpha virt. eigenvalues --   13.25134
          Condensed to atoms (all electrons):
               1          2          3          4          5          6
     1  H    0.275319  -0.015068  -0.015075   0.003229  -0.003303  -0.003271
     2  H   -0.015068   0.275397  -0.015067  -0.003287   0.003232  -0.003311
     3  H   -0.015075  -0.015067   0.275388  -0.003314  -0.003277   0.003229
     4  H    0.003229  -0.003287  -0.003314   0.446123  -0.021730  -0.021712
     5  H   -0.003303   0.003232  -0.003277  -0.021730   0.446774  -0.021708
     6  H   -0.003271  -0.003311   0.003229  -0.021712  -0.021708   0.446550
     7  N    0.274865   0.274965   0.274940  -0.029054  -0.029034  -0.029024
     8  C   -0.020654  -0.020826  -0.020775   0.381684   0.381697   0.381699
     9  I    0.000036   0.000069   0.000061  -0.000070  -0.000175  -0.000163
               7          8          9
     1  H    0.274865  -0.020654   0.000036
     2  H    0.274965  -0.020826   0.000069
     3  H    0.274940  -0.020775   0.000061
     4  H   -0.029054   0.381684  -0.000070
     5  H   -0.029034   0.381697  -0.000175
     6  H   -0.029024   0.381699  -0.000163
     7  N    6.974796   0.212376  -0.002452
     8  C    0.212376   5.042837  -0.003503
     9  I   -0.002452  -0.003503   8.004360
 Mulliken charges:
               1
     1  H    0.503922
     2  H    0.503896
     3  H    0.503890
     4  H    0.248131
     5  H    0.247525
     6  H    0.247710
     7  N   -0.922378
     8  C   -0.334534
     9  I   -0.998162
 Sum of Mulliken charges =  -0.00000
 Mulliken charges with hydrogens summed into heavy atoms:
               1
     7  N    0.589330
     8  C    0.408832
     9  I   -0.998162
 APT charges:
               1
     1  H    0.878332
     2  H    0.859897
     3  H    0.864309
     4  H    0.262663
     5  H    0.278814
     6  H    0.275039
     7  N   -2.004440
     8  C   -0.435347
     9  I   -0.979267
 Sum of APT charges =  -0.00000
 APT charges with hydrogens summed into heavy atoms:
               1
     7  N    0.598098
     8  C    0.381169
     9  I   -0.979267
 Electronic spatial extent (au):  <R**2>=           1008.3383
 Charge=             -0.0000 electrons
 Dipole moment (field-independent basis, Debye):
    X=             24.3860    Y=             -0.0298    Z=             -0.0401  Tot=             24.3860
 Quadrupole moment (field-independent basis, Debye-Ang):
   XX=             43.1859   YY=            -37.1018   ZZ=            -37.1022
   XY=             -0.1388   XZ=             -0.1927   YZ=              0.0004
 Traceless Quadrupole moment (field-independent basis, Debye-Ang):
   XX=             53.5253   YY=            -26.7624   ZZ=            -26.7628
   XY=             -0.1388   XZ=             -0.1927   YZ=              0.0004
 Octapole moment (field-independent basis, Debye-Ang**2):
  XXX=            333.8529  YYY=             -0.4474  ZZZ=             -0.5182  XYY=             -9.9003
  XXY=             -0.6315  XXZ=             -0.8761  XZZ=             -9.9042  YZZ=              0.3202
  YYZ=              0.3155  XYZ=              0.0098
 Hexadecapole moment (field-independent basis, Debye-Ang**3):
 XXXX=            572.1027 YYYY=            -83.4439 ZZZZ=            -83.4060 XXXY=             -2.4625
 XXXZ=             -3.4592 YYYX=             -3.2416 YYYZ=             -0.0326 ZZZX=             -3.6105
 ZZZY=             -0.0644 XXYY=           -170.3385 XXZZ=           -170.4217 YYZZ=            -27.9410
 XXYZ=              0.1738 YYXZ=              3.1380 ZZXY=              3.0082
 N-N= 6.377118509625D+01 E-N=-3.712373088044D+02  KE= 9.921607259742D+01
  Exact polarizability:   0.000   0.000   0.000   0.000   0.000   0.000
 Approx polarizability:  48.173  -0.003  42.283  -0.001   0.002  42.281

 This type of calculation cannot be archived.


 SCIENCE AND PEACE WILL TRIUMPH OVER IGNORANCE AND WAR

                          -- PASTEUR
 Job cpu time:       0 days  3 hours 31 minutes  6.1 seconds.
 Elapsed time:       0 days  0 hours 13 minutes 52.9 seconds.
 File lengths (MBytes):  RWF=     49 Int=      0 D2E=      0 Chk=      9 Scr=      1
 Normal termination of Gaussian 16 at Mon Jul 18 15:40:08 2022.
