 Entering Gaussian System, Link 0=g16
 Input=C4H6_electrocyclization_IRC_forward.gjf
 Output=C4H6_electrocyclization_IRC_forward.out
 Initial command:
 /home/gaussian/g16/l1.exe "/home/zz/C4H6_electrocyclization_findTS/Gau-2336.inp" -scrdir="/home/zz/C4H6_electrocyclization_findTS/"
 Entering Link 1 = /home/gaussian/g16/l1.exe PID=      2338.
  
 Copyright (c) 1988-2021, Gaussian, Inc.  All Rights Reserved.
  
 This is part of the Gaussian(R) 16 program.  It is based on
 the Gaussian(R) 09 system (copyright 2009, Gaussian, Inc.),
 the Gaussian(R) 03 system (copyright 2003, Gaussian, Inc.),
 the Gaussian(R) 98 system (copyright 1998, Gaussian, Inc.),
 the Gaussian(R) 94 system (copyright 1995, Gaussian, Inc.),
 the Gaussian 92(TM) system (copyright 1992, Gaussian, Inc.),
 the Gaussian 90(TM) system (copyright 1990, Gaussian, Inc.),
 the Gaussian 88(TM) system (copyright 1988, Gaussian, Inc.),
 the Gaussian 86(TM) system (copyright 1986, Carnegie Mellon
 University), and the Gaussian 82(TM) system (copyright 1983,
 Carnegie Mellon University). Gaussian is a federally registered
 trademark of Gaussian, Inc.
  
 This software contains proprietary and confidential information,
 including trade secrets, belonging to Gaussian, Inc.
  
 This software is provided under written license and may be
 used, copied, transmitted, or stored only in accord with that
 written license.
  
 The following legend is applicable only to US Government
 contracts under FAR:
  
                    RESTRICTED RIGHTS LEGEND
  
 Use, reproduction and disclosure by the US Government is
 subject to restrictions as set forth in subparagraphs (a)
 and (c) of the Commercial Computer Software - Restricted
 Rights clause in FAR 52.227-19.
  
 Gaussian, Inc.
 340 Quinnipiac St., Bldg. 40, Wallingford CT 06492
  
  
 ---------------------------------------------------------------
 Warning -- This program may not be used in any manner that
 competes with the business of Gaussian, Inc. or will provide
 assistance to any competitor of Gaussian, Inc.  The licensee
 of this program is prohibited from giving any competitor of
 Gaussian, Inc. access to this program.  By using this program,
 the user acknowledges that Gaussian, Inc. is engaged in the
 business of creating and licensing software in the field of
 computational chemistry and represents and warrants to the
 licensee that it is not a competitor of Gaussian, Inc. and that
 it will not use this program in any manner prohibited above.
 ---------------------------------------------------------------
  

 Cite this work as:
 Gaussian 16, Revision C.02,
 M. J. Frisch, G. W. Trucks, H. B. Schlegel, G. E. Scuseria, 
 M. A. Robb, J. R. Cheeseman, G. Scalmani, V. Barone, 
 G. A. Petersson, H. Nakatsuji, X. Li, M. Caricato, A. V. Marenich, 
 J. Bloino, B. G. Janesko, R. Gomperts, B. Mennucci, H. P. Hratchian, 
 J. V. Ortiz, A. F. Izmaylov, J. L. Sonnenberg, D. Williams-Young, 
 F. Ding, F. Lipparini, F. Egidi, J. Goings, B. Peng, A. Petrone, 
 T. Henderson, D. Ranasinghe, V. G. Zakrzewski, J. Gao, N. Rega, 
 G. Zheng, W. Liang, M. Hada, M. Ehara, K. Toyota, R. Fukuda, 
 J. Hasegawa, M. Ishida, T. Nakajima, Y. Honda, O. Kitao, H. Nakai, 
 T. Vreven, K. Throssell, J. A. Montgomery, Jr., J. E. Peralta, 
 F. Ogliaro, M. J. Bearpark, J. J. Heyd, E. N. Brothers, K. N. Kudin, 
 V. N. Staroverov, T. A. Keith, R. Kobayashi, J. Normand, 
 K. Raghavachari, A. P. Rendell, J. C. Burant, S. S. Iyengar, 
 J. Tomasi, M. Cossi, J. M. Millam, M. Klene, C. Adamo, R. Cammi, 
 J. W. Ochterski, R. L. Martin, K. Morokuma, O. Farkas, 
 J. B. Foresman, and D. J. Fox, Gaussian, Inc., Wallingford CT, 2019.
 
 ******************************************
 Gaussian 16:  ES64L-G16RevC.02  7-Dec-2021
                 6-Apr-2023 
 ******************************************
 %CPU=0-7
 SetSPE:  set environment variable "OMP_PROC_BIND" = "true"
 SetSPE:  set environment variable "OMP_PLACES" = "{0},{1},{2},{3},{4},{5},{6},{7}"
 Will use up to    8 processors via shared memory.
 %Mem=8GB
 %chk=C4H6_electrocyclization_IRC_forward.chk
 ----------------------------------------------------------------------
 #P IRC=(HPC,CalcFC,ReCalc=4,StepSize=5,MaxPoints=200,Forward) B3LYP/6-
 311G* EmpiricalDispersion=GD3BJ
 ----------------------------------------------------------------------
 1/10=4,18=10,22=1,26=3,38=1,39=5,42=200,44=3,45=3,71=4,172=1/1,23;
 2/12=2,17=6,18=5,29=1,40=1/2;
 3/5=4,6=6,7=1,11=2,25=1,30=1,71=2,74=-5,124=41,140=1/1,2,3;
 4//1;
 5/5=2,38=5/2;
 8/6=4,10=90,11=11/1;
 11/6=1,8=1,9=11,15=111,16=1/1,2,10;
 10/6=1,13=1/2;
 6/7=2,8=2,9=2,10=2,28=1/1;
 7/10=1,25=1/1,2,3,16;
 1/10=4,18=10,22=1,26=3,39=5,42=200,44=3,45=3,71=4/23(2);
 2/29=1/2;
 99/5=20/99;
 2/29=1/2;
 3/5=4,6=6,7=1,11=2,25=1,30=1,71=2,74=-5,124=41,140=1/1,2,3;
 4/5=5,16=3,69=1/1;
 5/5=2,38=5/2;
 8/6=4,10=90,11=11/1;
 11/6=1,8=1,9=11,15=111,16=1/1,2,10;
 10/6=1,13=1/2;
 7/10=1,25=1/1,2,3,16;
 1/18=10,22=1,26=3,39=5,42=200,44=3,45=3,71=4/23(-8);
 2/29=1/2;
 6/7=2,8=2,9=2,10=2,19=2,28=1/1;
 99/5=20,9=1/99;
 Leave Link    1 at Thu Apr  6 10:17:08 2023, MaxMem=  1073741824 cpu:               0.0 elap:               0.0
 (Enter /home/gaussian/g16/l101.exe)
 -------------------
 Title Card Required
 -------------------
 Symbolic Z-matrix:
 Charge =  0 Multiplicity = 1
 C                    -1.06375  -0.62744   0.11627 
 H                    -0.88186  -1.08142   1.08073 
 H                    -1.87244  -1.10208  -0.44572 
 C                    -0.6813    0.73406  -0.08211 
 H                    -1.33704   1.54376  -0.39259 
 C                     0.68129   0.73406   0.0821 
 H                     1.33702   1.54377   0.39261 
 C                     1.06376  -0.62743  -0.11627 
 H                     0.88188  -1.08142  -1.08073 
 H                     1.87245  -1.10205   0.44574 
 
 ITRead=  0  0  0  0  0  0  0  0  0  0
 MicOpt= -1 -1 -1 -1 -1 -1 -1 -1 -1 -1
 NAtoms=     10 NQM=       10 NQMF=       0 NMMI=      0 NMMIF=      0
                NMic=       0 NMicF=      0.
                    Isotopes and Nuclear Properties:
 (Nuclear quadrupole moments (NQMom) in fm**2, nuclear magnetic moments (NMagM)
  in nuclear magnetons)

  Atom         1           2           3           4           5           6           7           8           9          10
 IAtWgt=          12           1           1          12           1          12           1          12           1           1
 AtmWgt=  12.0000000   1.0078250   1.0078250  12.0000000   1.0078250  12.0000000   1.0078250  12.0000000   1.0078250   1.0078250
 NucSpn=           0           1           1           0           1           0           1           0           1           1
 AtZEff=  -0.0000000  -0.0000000  -0.0000000  -0.0000000  -0.0000000  -0.0000000  -0.0000000  -0.0000000  -0.0000000  -0.0000000
 NQMom=    0.0000000   0.0000000   0.0000000   0.0000000   0.0000000   0.0000000   0.0000000   0.0000000   0.0000000   0.0000000
 NMagM=    0.0000000   2.7928460   2.7928460   0.0000000   2.7928460   0.0000000   2.7928460   0.0000000   2.7928460   2.7928460
 AtZNuc=   6.0000000   1.0000000   1.0000000   6.0000000   1.0000000   6.0000000   1.0000000   6.0000000   1.0000000   1.0000000
 Leave Link  101 at Thu Apr  6 10:17:08 2023, MaxMem=  1073741824 cpu:               0.1 elap:               0.1
 (Enter /home/gaussian/g16/l123.exe)
 IRC-IRC-IRC-IRC-IRC-IRC-IRC-IRC-IRC-IRC-IRC-IRC-IRC-IRC-IRC-IRC-IRC-IRC
 ------------------------------------------------------------------------
 INPUT DATA FOR L123
 ------------------------------------------------------------------------
 GENERAL PARAMETERS:
 Rxn path following direction = Forward
 Maximum points per path      = 200
 Step size                    =   0.050 bohr
 Integration scheme           = HPC                                 
    Redo corrector integration= Yes                                 
    DWI Weight Power          =  2
    DWI will use Hessian update vectors when possible.
    Max correction cycles     =  20
 Initial Hessian              = CalcFC
 Hessian evaluation           = Analytic every   4 predictor steps
                              = Update at all corrector steps
 Hessian updating method      = Bofill                              
 ------------------------------------------------------------------------
 IRC-IRC-IRC-IRC-IRC-IRC-IRC-IRC-IRC-IRC-IRC-IRC-IRC-IRC-IRC-IRC-IRC-IRC
 Leave Link  123 at Thu Apr  6 10:17:08 2023, MaxMem=  1073741824 cpu:               0.0 elap:               0.0
 (Enter /home/gaussian/g16/l202.exe)
                          Input orientation:                          
 ---------------------------------------------------------------------
 Center     Atomic      Atomic             Coordinates (Angstroms)
 Number     Number       Type             X           Y           Z
 ---------------------------------------------------------------------
      1          6           0       -1.063746   -0.627444    0.116268
      2          1           0       -0.881864   -1.081417    1.080734
      3          1           0       -1.872439   -1.102078   -0.445724
      4          6           0       -0.681301    0.734056   -0.082109
      5          1           0       -1.337043    1.543764   -0.392589
      6          6           0        0.681291    0.734062    0.082102
      7          1           0        1.337020    1.543771    0.392611
      8          6           0        1.063755   -0.627434   -0.116268
      9          1           0        0.881884   -1.081423   -1.080728
     10          1           0        1.872448   -1.102051    0.445737
 ---------------------------------------------------------------------
                    Distance matrix (angstroms):
                    1          2          3          4          5
     1  C    0.000000
     2  H    1.081373   0.000000
     3  H    1.093205   1.819819   0.000000
     4  C    1.428041   2.165265   2.218651   0.000000
     5  H    2.246724   3.044576   2.699991   1.087209   0.000000
     6  C    2.213599   2.595512   3.189286   1.372451   2.225898
     7  H    3.248726   3.505506   4.243106   2.225897   2.786961
     8  C    2.140171   2.329023   2.992501   2.213604   3.248736
     9  H    2.329028   2.789754   2.826650   2.595525   3.505535
    10  H    2.992497   2.826638   3.849530   3.189286   4.243107
                    6          7          8          9         10
     6  C    0.000000
     7  H    1.087210   0.000000
     8  C    1.428041   2.246723   0.000000
     9  H    2.165271   3.044589   1.081372   0.000000
    10  H    2.218647   2.699978   1.093204   1.819818   0.000000
 Symmetry turned off by external request.
 Stoichiometry    C4H6
 Framework group  C1[X(C4H6)]
 Deg. of freedom    24
 Full point group                 C1      NOp   1
 Rotational constants (GHZ):          14.2370059           9.3438284           6.1251412
 Leave Link  202 at Thu Apr  6 10:17:08 2023, MaxMem=  1073741824 cpu:               0.0 elap:               0.0
 (Enter /home/gaussian/g16/l301.exe)
 Standard basis: 6-311G(d) (5D, 7F)
 Ernie: Thresh=  0.10000D-02 Tol=  0.10000D-05 Strict=F.
    90 basis functions,   158 primitive gaussians,    94 cartesian basis functions
    15 alpha electrons       15 beta electrons
       nuclear repulsion energy       109.6751226363 Hartrees.
 IExCor=  402 DFT=T Ex+Corr=B3LYP ExCW=0 ScaHFX=  0.200000
 ScaDFX=  0.800000  0.720000  1.000000  0.810000 ScalE2=  1.000000  1.000000
 IRadAn=      5 IRanWt=     -1 IRanGd=            0 ICorTp=0 IEmpDi=141
 NAtoms=   10 NActive=   10 NUniq=   10 SFac= 1.00D+00 NAtFMM=   60 NAOKFM=F Big=F
 Integral buffers will be    131072 words long.
 Raffenetti 2 integral format.
 Two-electron integral symmetry is turned off.
 R6Disp:  Grimme-D3(BJ) Dispersion energy=       -0.0116443742 Hartrees.
 Nuclear repulsion after empirical dispersion term =      109.6634782622 Hartrees.
 Leave Link  301 at Thu Apr  6 10:17:08 2023, MaxMem=  1073741824 cpu:               0.0 elap:               0.0
 (Enter /home/gaussian/g16/l302.exe)
 NPDir=0 NMtPBC=     1 NCelOv=     1 NCel=       1 NClECP=     1 NCelD=      1
         NCelK=      1 NCelE2=     1 NClLst=     1 CellRange=     0.0.
 One-electron integrals computed using PRISM.
 NBasis=    90 RedAO= T EigKep=  1.22D-03  NBF=    90
 NBsUse=    90 1.00D-06 EigRej= -1.00D+00 NBFU=    90
 Precomputing XC quadrature grid using
 IXCGrd= 4 IRadAn=           5 IRanWt=          -1 IRanGd=           0 AccXCQ= 0.00D+00.
 Generated NRdTot=       0 NPtTot=           0 NUsed=           0 NTot=          32
 NSgBfM=    94    94    94    94    94 MxSgAt=    10 MxSgA2=    10.
 Leave Link  302 at Thu Apr  6 10:17:09 2023, MaxMem=  1073741824 cpu:               0.3 elap:               0.1
 (Enter /home/gaussian/g16/l303.exe)
 DipDrv:  MaxL=1.
 Leave Link  303 at Thu Apr  6 10:17:09 2023, MaxMem=  1073741824 cpu:               0.0 elap:               0.0
 (Enter /home/gaussian/g16/l401.exe)
 ExpMin= 1.03D-01 ExpMax= 4.56D+03 ExpMxC= 6.82D+02 IAcc=3 IRadAn=         5 AccDes= 0.00D+00
 Harris functional with IExCor=  402 and IRadAn=       5 diagonalized for initial guess.
 HarFok:  IExCor=  402 AccDes= 0.00D+00 IRadAn=         5 IDoV= 1 UseB2=F ITyADJ=14
 ICtDFT=  3500011 ScaDFX=  1.000000  1.000000  1.000000  1.000000
 FoFCou: FMM=F IPFlag=           0 FMFlag=      100000 FMFlg1=           0
         NFxFlg=           0 DoJE=T BraDBF=F KetDBF=T FulRan=T
         wScrn=  0.000000 ICntrl=       500 IOpCl=  0 I1Cent=   200000004 NGrid=           0
         NMat0=    1 NMatS0=      1 NMatT0=    0 NMatD0=    1 NMtDS0=    0 NMtDT0=    0
 Symmetry not used in FoFCou.
 Harris En= -156.001576590462    
 JPrj=0 DoOrth=F DoCkMO=F.
 Leave Link  401 at Thu Apr  6 10:17:09 2023, MaxMem=  1073741824 cpu:               1.5 elap:               0.2
 (Enter /home/gaussian/g16/l502.exe)
 Keep R1 ints in memory in canonical form, NReq=15734758.
 FoFCou: FMM=F IPFlag=           0 FMFlag=           0 FMFlg1=           0
         NFxFlg=           0 DoJE=F BraDBF=F KetDBF=F FulRan=T
         wScrn=  0.000000 ICntrl=       600 IOpCl=  0 I1Cent=           0 NGrid=           0
         NMat0=    1 NMatS0=   4095 NMatT0=    0 NMatD0=    1 NMtDS0=    0 NMtDT0=    0
 Symmetry not used in FoFCou.
 Two-electron integral symmetry not used.
 Closed shell SCF:
 Using DIIS extrapolation, IDIIS=  1040.
 NGot=  1073741824 LenX=  1065335684 LenY=  1065326407
 Requested convergence on RMS density matrix=1.00D-08 within 128 cycles.
 Requested convergence on MAX density matrix=1.00D-06.
 Requested convergence on             energy=1.00D-06.
 No special actions if energy rises.
 Integral accuracy reduced to 1.0D-05 until final iterations.

 Cycle   1  Pass 0  IDiag  1:
 E= -155.828675520069    
 DIIS: error= 4.46D-02 at cycle   1 NSaved=   1.
 NSaved= 1 IEnMin= 1 EnMin= -155.828675520069     IErMin= 1 ErrMin= 4.46D-02
 ErrMax= 4.46D-02  0.00D+00 EMaxC= 1.00D-01 BMatC= 1.30D-01 BMatP= 1.30D-01
 IDIUse=3 WtCom= 5.54D-01 WtEn= 4.46D-01
 Coeff-Com:  0.100D+01
 Coeff-En:   0.100D+01
 Coeff:      0.100D+01
 Gap=     0.223 Goal=   None    Shift=    0.000
 GapD=    0.223 DampG=1.000 DampE=0.500 DampFc=0.5000 IDamp=-1.
 Damping current iteration by 5.00D-01
 RMSDP=7.11D-03 MaxDP=9.66D-02              OVMax= 1.74D-01

 Cycle   2  Pass 0  IDiag  1:
 E= -155.887370651521     Delta-E=       -0.058695131452 Rises=F Damp=T
 DIIS: error= 6.41D-03 at cycle   2 NSaved=   2.
 NSaved= 2 IEnMin= 2 EnMin= -155.887370651521     IErMin= 2 ErrMin= 6.41D-03
 ErrMax= 6.41D-03  0.00D+00 EMaxC= 1.00D-01 BMatC= 6.00D-03 BMatP= 1.30D-01
 IDIUse=3 WtCom= 9.36D-01 WtEn= 6.41D-02
 Coeff-Com:  0.500D-01 0.950D+00
 Coeff-En:   0.126D+00 0.874D+00
 Coeff:      0.548D-01 0.945D+00
 Gap=     0.237 Goal=   None    Shift=    0.000
 RMSDP=1.57D-03 MaxDP=1.62D-02 DE=-5.87D-02 OVMax= 9.91D-02

 Cycle   3  Pass 0  IDiag  1:
 E= -155.961873864680     Delta-E=       -0.074503213158 Rises=F Damp=F
 DIIS: error= 3.61D-03 at cycle   3 NSaved=   3.
 NSaved= 3 IEnMin= 3 EnMin= -155.961873864680     IErMin= 3 ErrMin= 3.61D-03
 ErrMax= 3.61D-03  0.00D+00 EMaxC= 1.00D-01 BMatC= 1.19D-03 BMatP= 6.00D-03
 IDIUse=3 WtCom= 9.64D-01 WtEn= 3.61D-02
 Coeff-Com: -0.346D-01 0.258D+00 0.776D+00
 Coeff-En:   0.000D+00 0.000D+00 0.100D+01
 Coeff:     -0.334D-01 0.249D+00 0.784D+00
 Gap=     0.218 Goal=   None    Shift=    0.000
 RMSDP=5.10D-04 MaxDP=6.67D-03 DE=-7.45D-02 OVMax= 9.95D-03

 Cycle   4  Pass 0  IDiag  1:
 E= -155.962944931598     Delta-E=       -0.001071066918 Rises=F Damp=F
 DIIS: error= 1.26D-03 at cycle   4 NSaved=   4.
 NSaved= 4 IEnMin= 4 EnMin= -155.962944931598     IErMin= 4 ErrMin= 1.26D-03
 ErrMax= 1.26D-03  0.00D+00 EMaxC= 1.00D-01 BMatC= 1.08D-04 BMatP= 1.19D-03
 IDIUse=3 WtCom= 9.87D-01 WtEn= 1.26D-02
 Coeff-Com: -0.158D-01 0.612D-01 0.296D+00 0.658D+00
 Coeff-En:   0.000D+00 0.000D+00 0.000D+00 0.100D+01
 Coeff:     -0.156D-01 0.604D-01 0.292D+00 0.663D+00
 Gap=     0.219 Goal=   None    Shift=    0.000
 RMSDP=1.28D-04 MaxDP=2.11D-03 DE=-1.07D-03 OVMax= 5.46D-03

 Cycle   5  Pass 0  IDiag  1:
 E= -155.963012825865     Delta-E=       -0.000067894267 Rises=F Damp=F
 DIIS: error= 6.76D-04 at cycle   5 NSaved=   5.
 NSaved= 5 IEnMin= 5 EnMin= -155.963012825865     IErMin= 5 ErrMin= 6.76D-04
 ErrMax= 6.76D-04  0.00D+00 EMaxC= 1.00D-01 BMatC= 3.64D-05 BMatP= 1.08D-04
 IDIUse=3 WtCom= 9.93D-01 WtEn= 6.76D-03
 Coeff-Com: -0.674D-02 0.143D-01 0.110D+00 0.405D+00 0.477D+00
 Coeff-En:   0.000D+00 0.000D+00 0.000D+00 0.264D+00 0.736D+00
 Coeff:     -0.670D-02 0.142D-01 0.110D+00 0.404D+00 0.478D+00
 Gap=     0.219 Goal=   None    Shift=    0.000
 RMSDP=6.45D-05 MaxDP=6.38D-04 DE=-6.79D-05 OVMax= 2.57D-03

 Cycle   6  Pass 0  IDiag  1:
 E= -155.963050177563     Delta-E=       -0.000037351699 Rises=F Damp=F
 DIIS: error= 6.68D-05 at cycle   6 NSaved=   6.
 NSaved= 6 IEnMin= 6 EnMin= -155.963050177563     IErMin= 6 ErrMin= 6.68D-05
 ErrMax= 6.68D-05  0.00D+00 EMaxC= 1.00D-01 BMatC= 2.45D-07 BMatP= 3.64D-05
 IDIUse=1 WtCom= 1.00D+00 WtEn= 0.00D+00
 Coeff-Com: -0.115D-02 0.130D-02 0.182D-01 0.865D-01 0.147D+00 0.748D+00
 Coeff:     -0.115D-02 0.130D-02 0.182D-01 0.865D-01 0.147D+00 0.748D+00
 Gap=     0.219 Goal=   None    Shift=    0.000
 RMSDP=8.31D-06 MaxDP=6.61D-05 DE=-3.74D-05 OVMax= 2.64D-04

 Initial convergence to 1.0D-05 achieved.  Increase integral accuracy.
 Cycle   7  Pass 1  IDiag  1:
 E= -155.963052912679     Delta-E=       -0.000002735115 Rises=F Damp=F
 DIIS: error= 8.26D-06 at cycle   1 NSaved=   1.
 NSaved= 1 IEnMin= 1 EnMin= -155.963052912679     IErMin= 1 ErrMin= 8.26D-06
 ErrMax= 8.26D-06  0.00D+00 EMaxC= 1.00D-01 BMatC= 4.06D-09 BMatP= 4.06D-09
 IDIUse=1 WtCom= 1.00D+00 WtEn= 0.00D+00
 Coeff-Com:  0.100D+01
 Coeff:      0.100D+01
 Gap=     0.219 Goal=   None    Shift=    0.000
 RMSDP=8.31D-06 MaxDP=6.61D-05 DE=-2.74D-06 OVMax= 6.48D-05

 Cycle   8  Pass 1  IDiag  1:
 E= -155.963052913553     Delta-E=       -0.000000000874 Rises=F Damp=F
 DIIS: error= 8.59D-06 at cycle   2 NSaved=   2.
 NSaved= 2 IEnMin= 2 EnMin= -155.963052913553     IErMin= 1 ErrMin= 8.26D-06
 ErrMax= 8.59D-06  0.00D+00 EMaxC= 1.00D-01 BMatC= 3.84D-09 BMatP= 4.06D-09
 IDIUse=1 WtCom= 1.00D+00 WtEn= 0.00D+00
 Coeff-Com:  0.492D+00 0.508D+00
 Coeff:      0.492D+00 0.508D+00
 Gap=     0.219 Goal=   None    Shift=    0.000
 RMSDP=8.63D-07 MaxDP=9.03D-06 DE=-8.74D-10 OVMax= 3.49D-05

 Cycle   9  Pass 1  IDiag  1:
 E= -155.963052917494     Delta-E=       -0.000000003941 Rises=F Damp=F
 DIIS: error= 2.18D-06 at cycle   3 NSaved=   3.
 NSaved= 3 IEnMin= 3 EnMin= -155.963052917494     IErMin= 3 ErrMin= 2.18D-06
 ErrMax= 2.18D-06  0.00D+00 EMaxC= 1.00D-01 BMatC= 5.22D-10 BMatP= 3.84D-09
 IDIUse=1 WtCom= 1.00D+00 WtEn= 0.00D+00
 Coeff-Com:  0.157D+00 0.282D+00 0.561D+00
 Coeff:      0.157D+00 0.282D+00 0.561D+00
 Gap=     0.219 Goal=   None    Shift=    0.000
 RMSDP=2.34D-07 MaxDP=2.97D-06 DE=-3.94D-09 OVMax= 8.85D-06

 Cycle  10  Pass 1  IDiag  1:
 E= -155.963052917998     Delta-E=       -0.000000000504 Rises=F Damp=F
 DIIS: error= 3.11D-07 at cycle   4 NSaved=   4.
 NSaved= 4 IEnMin= 4 EnMin= -155.963052917998     IErMin= 4 ErrMin= 3.11D-07
 ErrMax= 3.11D-07  0.00D+00 EMaxC= 1.00D-01 BMatC= 6.86D-12 BMatP= 5.22D-10
 IDIUse=1 WtCom= 1.00D+00 WtEn= 0.00D+00
 Coeff-Com:  0.829D-02 0.392D-01 0.139D+00 0.813D+00
 Coeff:      0.829D-02 0.392D-01 0.139D+00 0.813D+00
 Gap=     0.219 Goal=   None    Shift=    0.000
 RMSDP=5.18D-08 MaxDP=5.38D-07 DE=-5.04D-10 OVMax= 1.02D-06

 Cycle  11  Pass 1  IDiag  1:
 E= -155.963052918003     Delta-E=       -0.000000000005 Rises=F Damp=F
 DIIS: error= 1.01D-07 at cycle   5 NSaved=   5.
 NSaved= 5 IEnMin= 5 EnMin= -155.963052918003     IErMin= 5 ErrMin= 1.01D-07
 ErrMax= 1.01D-07  0.00D+00 EMaxC= 1.00D-01 BMatC= 1.44D-12 BMatP= 6.86D-12
 IDIUse=1 WtCom= 1.00D+00 WtEn= 0.00D+00
 Coeff-Com: -0.449D-02 0.464D-02 0.387D-01 0.398D+00 0.563D+00
 Coeff:     -0.449D-02 0.464D-02 0.387D-01 0.398D+00 0.563D+00
 Gap=     0.219 Goal=   None    Shift=    0.000
 RMSDP=1.50D-08 MaxDP=1.92D-07 DE=-5.00D-12 OVMax= 7.25D-07

 Cycle  12  Pass 1  IDiag  1:
 E= -155.963052918004     Delta-E=       -0.000000000001 Rises=F Damp=F
 DIIS: error= 7.40D-08 at cycle   6 NSaved=   6.
 NSaved= 6 IEnMin= 6 EnMin= -155.963052918004     IErMin= 6 ErrMin= 7.40D-08
 ErrMax= 7.40D-08  0.00D+00 EMaxC= 1.00D-01 BMatC= 2.44D-13 BMatP= 1.44D-12
 IDIUse=1 WtCom= 1.00D+00 WtEn= 0.00D+00
 Coeff-Com: -0.342D-02-0.264D-03 0.127D-01 0.181D+00 0.353D+00 0.457D+00
 Coeff:     -0.342D-02-0.264D-03 0.127D-01 0.181D+00 0.353D+00 0.457D+00
 Gap=     0.219 Goal=   None    Shift=    0.000
 RMSDP=5.32D-09 MaxDP=7.68D-08 DE=-1.36D-12 OVMax= 3.76D-07

 SCF Done:  E(RB3LYP) =  -155.963052918     A.U. after   12 cycles
            NFock= 12  Conv=0.53D-08     -V/T= 2.0045
 KE= 1.552626890599D+02 PE=-5.806446757052D+02 EE= 1.597554554652D+02
 Leave Link  502 at Thu Apr  6 10:17:10 2023, MaxMem=  1073741824 cpu:              10.6 elap:               1.4
 (Enter /home/gaussian/g16/l801.exe)
 DoSCS=F DFT=T ScalE2(SS,OS)=  1.000000  1.000000
 Range of M.O.s used for correlation:     1    90
 NBasis=    90 NAE=    15 NBE=    15 NFC=     0 NFV=     0
 NROrb=     90 NOA=    15 NOB=    15 NVA=    75 NVB=    75
 Leave Link  801 at Thu Apr  6 10:17:10 2023, MaxMem=  1073741824 cpu:               0.0 elap:               0.0
 (Enter /home/gaussian/g16/l1101.exe)
 Using compressed storage, NAtomX=    10.
 Will process     11 centers per pass.
 R6Disp: Adding Grimme-D3(BJ) dispersion energy 1st derivatives to the gradient.
 Leave Link 1101 at Thu Apr  6 10:17:10 2023, MaxMem=  1073741824 cpu:               0.4 elap:               0.1
 (Enter /home/gaussian/g16/l1102.exe)
 Symmetrizing basis deriv contribution to polar:
 IMax=3 JMax=2 DiffMx= 0.00D+00
 Leave Link 1102 at Thu Apr  6 10:17:10 2023, MaxMem=  1073741824 cpu:               0.1 elap:               0.1
 (Enter /home/gaussian/g16/l1110.exe)
 Forming Gx(P) for the SCF density, NAtomX=    10.
 Integral derivatives from FoFJK, PRISM(SPDF).
 Do as many integral derivatives as possible in FoFJK.
 G2DrvN: MDV=    1073740678.
 G2DrvN: will do    11 centers at a time, making    1 passes.
 Calling FoFCou, ICntrl=  3107 FMM=F I1Cent=   0 AccDes= 0.00D+00.
 FoFJK:  IHMeth= 1 ICntrl=    3107 DoSepK=F KAlg= 0 I1Cent=           0 FoldK=F
 IRaf=         0 NMat=       1 IRICut=       1 DoRegI=T DoRafI=F ISym2E= 0 IDoP0=0 IntGTp=1.
 FoFCou: FMM=F IPFlag=           0 FMFlag=      100000 FMFlg1=           0
         NFxFlg=           0 DoJE=F BraDBF=F KetDBF=F FulRan=T
         wScrn=  0.000000 ICntrl=      3107 IOpCl=  0 I1Cent=           0 NGrid=           0
         NMat0=    1 NMatS0=      1 NMatT0=    0 NMatD0=    1 NMtDS0=    0 NMtDT0=    0
 Symmetry not used in FoFCou.
 End of G2Drv F.D. properties file   721 does not exist.
 End of G2Drv F.D. properties file   722 does not exist.
 End of G2Drv F.D. properties file   788 does not exist.
 Leave Link 1110 at Thu Apr  6 10:17:13 2023, MaxMem=  1073741824 cpu:              18.3 elap:               2.3
 (Enter /home/gaussian/g16/l1002.exe)
 Minotr:  Closed shell wavefunction.
          IDoAtm=1111111111
          Direct CPHF calculation.
          Differentiating once with respect to nuclear coordinates.
          Requested convergence is 1.0D-08 RMS, and 1.0D-07 maximum.
          Secondary convergence is 1.0D-12 RMS, and 1.0D-12 maximum.
          NewPWx=T KeepS1=F KeepF1=F KeepIn=T MapXYZ=F SortEE=F KeepMc=T.
         2953 words used for storage of precomputed grid.
 Keep R1 ints in memory in canonical form, NReq=15716407.
 FoFCou: FMM=F IPFlag=           0 FMFlag=           0 FMFlg1=           0
         NFxFlg=           0 DoJE=F BraDBF=F KetDBF=F FulRan=T
         wScrn=  0.000000 ICntrl=       600 IOpCl=  0 I1Cent=           0 NGrid=           0
         NMat0=    1 NMatS0=   4095 NMatT0=    0 NMatD0=    1 NMtDS0=    0 NMtDT0=    0
 Symmetry not used in FoFCou.
 Two-electron integral symmetry not used.
          MDV=    1073741824 using IRadAn=       1.
          Solving linear equations simultaneously, MaxMat=       0.
          There are    33 degrees of freedom in the 1st order CPHF.  IDoFFX=6 NUNeed=     0.
     27 vectors produced by pass  0 Test12= 3.41D-15 3.03D-09 XBig12= 9.59D-02 1.22D-01.
 AX will form    27 AO Fock derivatives at one time.
     27 vectors produced by pass  1 Test12= 3.41D-15 3.03D-09 XBig12= 5.99D-03 2.61D-02.
     27 vectors produced by pass  2 Test12= 3.41D-15 3.03D-09 XBig12= 4.89D-05 1.37D-03.
     27 vectors produced by pass  3 Test12= 3.41D-15 3.03D-09 XBig12= 1.18D-07 6.87D-05.
     27 vectors produced by pass  4 Test12= 3.41D-15 3.03D-09 XBig12= 1.43D-10 1.74D-06.
     21 vectors produced by pass  5 Test12= 3.41D-15 3.03D-09 XBig12= 1.40D-13 6.05D-08.
 InvSVY:  IOpt=1 It=  1 EMax= 1.44D-15
 Solved reduced A of dimension   156 with    27 vectors.
 End of Minotr F.D. properties file   721 does not exist.
 End of Minotr F.D. properties file   722 does not exist.
 End of Minotr F.D. properties file   788 does not exist.
 Leave Link 1002 at Thu Apr  6 10:17:15 2023, MaxMem=  1073741824 cpu:              21.2 elap:               2.7
 (Enter /home/gaussian/g16/l601.exe)
 Copying SCF densities to generalized density rwf, IOpCl= 0 IROHF=0.

 **********************************************************************

            Population analysis using the SCF Density.

 **********************************************************************

 Alpha  occ. eigenvalues --  -10.18421 -10.18420 -10.16855 -10.16794  -0.83311
 Alpha  occ. eigenvalues --   -0.68670  -0.63045  -0.53219  -0.49378  -0.44026
 Alpha  occ. eigenvalues --   -0.42084  -0.37565  -0.37297  -0.24636  -0.24437
 Alpha virt. eigenvalues --   -0.02573   0.01259   0.06326   0.08128   0.09174
 Alpha virt. eigenvalues --    0.10834   0.12055   0.13578   0.22287   0.28398
 Alpha virt. eigenvalues --    0.30686   0.33871   0.34498   0.37454   0.38204
 Alpha virt. eigenvalues --    0.40690   0.42483   0.43898   0.48745   0.50316
 Alpha virt. eigenvalues --    0.54535   0.54613   0.59326   0.59866   0.63090
 Alpha virt. eigenvalues --    0.65398   0.68094   0.69565   0.72967   0.77884
 Alpha virt. eigenvalues --    0.78044   0.82917   0.87907   1.12062   1.16753
 Alpha virt. eigenvalues --    1.33955   1.39723   1.41179   1.43917   1.52517
 Alpha virt. eigenvalues --    1.54719   1.58162   1.65072   1.65910   1.70603
 Alpha virt. eigenvalues --    1.77974   1.85283   1.89450   1.91108   1.98993
 Alpha virt. eigenvalues --    2.05177   2.09834   2.25302   2.27273   2.29779
 Alpha virt. eigenvalues --    2.41366   2.46558   2.61154   2.63757   2.68412
 Alpha virt. eigenvalues --    2.78011   2.92220   3.03081   3.12635   3.16223
 Alpha virt. eigenvalues --    3.20357   3.24063   3.26061   3.54323   3.70819
 Alpha virt. eigenvalues --    4.04856  23.30407  23.64246  23.81406  24.12362
          Condensed to atoms (all electrons):
               1          2          3          4          5          6
     1  C    5.318510   0.396316   0.367624   0.447824  -0.045849  -0.140900
     2  H    0.396316   0.465462  -0.042325  -0.024387   0.002355  -0.027163
     3  H    0.367624  -0.042325   0.512588  -0.050102  -0.001357   0.012483
     4  C    0.447824  -0.024387  -0.050102   5.066951   0.391437   0.536607
     5  H   -0.045849   0.002355  -0.001357   0.391437   0.502299  -0.044975
     6  C   -0.140900  -0.027163   0.012483   0.536607  -0.044975   5.066948
     7  H    0.012956  -0.000169  -0.000584  -0.044975  -0.000351   0.391437
     8  C    0.127494  -0.022308   0.003612  -0.140899   0.012956   0.447827
     9  H   -0.022308  -0.002356   0.002311  -0.027162  -0.000169  -0.024386
    10  H    0.003612   0.002311  -0.000806   0.012483  -0.000584  -0.050102
               7          8          9         10
     1  C    0.012956   0.127494  -0.022308   0.003612
     2  H   -0.000169  -0.022308  -0.002356   0.002311
     3  H   -0.000584   0.003612   0.002311  -0.000806
     4  C   -0.044975  -0.140899  -0.027162   0.012483
     5  H   -0.000351   0.012956  -0.000169  -0.000584
     6  C    0.391437   0.447827  -0.024386  -0.050102
     7  H    0.502301  -0.045849   0.002355  -0.001357
     8  C   -0.045849   5.318505   0.396315   0.367625
     9  H    0.002355   0.396315   0.465460  -0.042325
    10  H   -0.001357   0.367625  -0.042325   0.512587
 Mulliken charges:
               1
     1  C   -0.465279
     2  H    0.252264
     3  H    0.196555
     4  C   -0.167777
     5  H    0.184236
     6  C   -0.167775
     7  H    0.184235
     8  C   -0.465278
     9  H    0.252264
    10  H    0.196555
 Sum of Mulliken charges =  -0.00000
 Mulliken charges with hydrogens summed into heavy atoms:
               1
     1  C   -0.016461
     4  C    0.016459
     6  C    0.016460
     8  C   -0.016458
 APT charges:
               1
     1  C   -0.935321
     2  H    0.440812
     3  H    0.493461
     4  C   -0.501587
     5  H    0.502632
     6  C   -0.501582
     7  H    0.502629
     8  C   -0.935319
     9  H    0.440814
    10  H    0.493460
 Sum of APT charges =  -0.00000
 APT charges with hydrogens summed into heavy atoms:
               1
     1  C   -0.001048
     4  C    0.001044
     6  C    0.001047
     8  C   -0.001044
 Electronic spatial extent (au):  <R**2>=            253.6137
 Charge=             -0.0000 electrons
 Dipole moment (field-independent basis, Debye):
    X=              0.0000    Y=             -0.1949    Z=              0.0000  Tot=              0.1949
 Quadrupole moment (field-independent basis, Debye-Ang):
   XX=            -24.5256   YY=            -24.6299   ZZ=            -26.3416
   XY=             -0.0000   XZ=              1.2476   YZ=              0.0000
 Traceless Quadrupole moment (field-independent basis, Debye-Ang):
   XX=              0.6401   YY=              0.5358   ZZ=             -1.1759
   XY=             -0.0000   XZ=              1.2476   YZ=              0.0000
 Octapole moment (field-independent basis, Debye-Ang**2):
  XXX=             -0.0000  YYY=              2.6110  ZZZ=              0.0001  XYY=             -0.0001
  XXY=             -0.1457  XXZ=              0.0001  XZZ=              0.0001  YZZ=             -2.2796
  YYZ=              0.0000  XYZ=              1.1162
 Hexadecapole moment (field-independent basis, Debye-Ang**3):
 XXXX=           -184.2118 YYYY=           -129.0025 ZZZZ=            -43.2806 XXXY=             -0.0002
 XXXZ=              7.5720 YYYX=             -0.0001 YYYZ=              0.0002 ZZZX=             -0.1277
 ZZZY=              0.0001 XXYY=            -46.8817 XXZZ=            -38.9364 YYZZ=            -28.4751
 XXYZ=              0.0001 YYXZ=              2.0679 ZZXY=             -0.0000
 N-N= 1.096634782622D+02 E-N=-5.806446763827D+02  KE= 1.552626890599D+02
  Exact polarizability:       0.000       0.000       0.000       0.000       0.000       0.000
 Approx polarizability:     107.406       0.000      72.166       3.865       0.000      41.378
 No NMR shielding tensors so no spin-rotation constants.
 Leave Link  601 at Thu Apr  6 10:17:15 2023, MaxMem=  1073741824 cpu:               0.3 elap:               0.1
 (Enter /home/gaussian/g16/l701.exe)
 ... and contract with generalized density number  0.
 Compute integral second derivatives.
 R6Disp: Adding Grimme-D3(BJ) dispersion energy 2nd derivatives to the Hessian.
 Leave Link  701 at Thu Apr  6 10:17:16 2023, MaxMem=  1073741824 cpu:               0.6 elap:               0.1
 (Enter /home/gaussian/g16/l702.exe)
 L702 exits ... SP integral derivatives will be done elsewhere.
 Leave Link  702 at Thu Apr  6 10:17:16 2023, MaxMem=  1073741824 cpu:               0.0 elap:               0.0
 (Enter /home/gaussian/g16/l703.exe)
 Integral derivatives from FoFJK, PRISM(SPDF).
 Compute integral second derivatives, UseDBF=F ICtDFT=           0.
 Calling FoFJK, ICntrl=    100127 FMM=F ISym2X=0 I1Cent= 0 IOpClX= 0 NMat=1 NMatS=1 NMatT=0.
 FoFJK:  IHMeth= 1 ICntrl=  100127 DoSepK=F KAlg= 0 I1Cent=           0 FoldK=F
 IRaf=         0 NMat=       1 IRICut=       1 DoRegI=T DoRafI=F ISym2E= 0 IDoP0=0 IntGTp=1.
 FoFCou: FMM=F IPFlag=           0 FMFlag=      100000 FMFlg1=         800
         NFxFlg=           0 DoJE=F BraDBF=F KetDBF=F FulRan=T
         wScrn=  0.000000 ICntrl=    100127 IOpCl=  0 I1Cent=           0 NGrid=           0
         NMat0=    1 NMatS0=      1 NMatT0=    0 NMatD0=    1 NMtDS0=    0 NMtDT0=    0
 Symmetry not used in FoFCou.
 Leave Link  703 at Thu Apr  6 10:17:21 2023, MaxMem=  1073741824 cpu:              39.6 elap:               5.0
 (Enter /home/gaussian/g16/l716.exe)
 Dipole        = 1.67828877D-06-7.66768305D-02 1.14136838D-05
 Polarizability= 0.00000000D+00 0.00000000D+00 0.00000000D+00
                 0.00000000D+00 0.00000000D+00 0.00000000D+00
 -------------------------------------------------------------------
 Center     Atomic                   Forces (Hartrees/Bohr)
 Number     Number              X              Y              Z
 -------------------------------------------------------------------
      1        6          -0.000000025   -0.000002645    0.000000739
      2        1          -0.000000827   -0.000000599   -0.000000528
      3        1           0.000000565    0.000000451   -0.000000473
      4        6          -0.000010506    0.000001020    0.000003321
      5        1           0.000000429    0.000000986   -0.000002716
      6        6           0.000011729    0.000001398   -0.000002034
      7        1          -0.000000659    0.000000818    0.000001405
      8        6          -0.000001076   -0.000001430   -0.000000227
      9        1           0.000000693   -0.000000101    0.000000015
     10        1          -0.000000323    0.000000101    0.000000499
 -------------------------------------------------------------------
 Cartesian Forces:  Max     0.000011729 RMS     0.000003117
 Z-matrix is all fixed cartesians, so copy forces.
 Force constants in Cartesian coordinates: 
                1             2             3             4             5 
      1  0.314201D+00
      2  0.203111D+00  0.515332D+00
      3  0.159465D+00 -0.101839D+00  0.493839D+00
      4 -0.248734D-01 -0.499190D-02 -0.552112D-01  0.495188D-01
      5  0.430207D-02 -0.792257D-01  0.107416D+00 -0.103734D-01  0.982986D-01
      6 -0.675439D-01  0.121058D+00 -0.285988D+00  0.617292D-01 -0.118413D+00
      7 -0.192847D+00 -0.781492D-01 -0.110790D+00 -0.219775D-02 -0.217307D-02
      8 -0.757706D-01 -0.107496D+00 -0.516761D-01  0.874062D-02  0.674411D-02
      9 -0.995405D-01 -0.568149D-01 -0.119411D+00 -0.200213D-01 -0.121440D-01
     10 -0.105658D+00 -0.438208D-01 -0.490797D-02  0.114464D-01 -0.608041D-02
     11 -0.902151D-01 -0.280851D+00  0.412527D-01  0.134210D-01 -0.231668D-01
     12 -0.148773D-01  0.469278D-01 -0.749301D-01  0.487035D-02  0.237023D-01
     13  0.835666D-02 -0.691254D-02  0.540124D-02  0.471492D-03 -0.186845D-02
     14  0.129690D-01 -0.577973D-02  0.844569D-02  0.117448D-02 -0.238370D-02
     15 -0.793783D-02  0.151962D-01  0.338124D-03 -0.644042D-03  0.104353D-02
     16 -0.226801D-01 -0.619640D-01 -0.460657D-02 -0.152427D-01  0.984866D-02
     17 -0.696718D-01 -0.346415D-02 -0.593641D-02  0.780798D-02 -0.817866D-02
     18  0.947948D-02 -0.664307D-02  0.570567D-02  0.388376D-02  0.338987D-03
     19 -0.516666D-02 -0.306993D-03 -0.412452D-02  0.971351D-03 -0.194153D-03
     20 -0.339382D-02  0.109345D-02 -0.385189D-02  0.140195D-02 -0.270633D-03
     21  0.699674D-02 -0.885178D-02  0.913701D-02 -0.398405D-02  0.659231D-03
     22  0.414696D-01 -0.202956D-01  0.921081D-02 -0.220722D-01  0.804927D-02
     23  0.202970D-01 -0.431442D-01  0.646355D-02 -0.187207D-01  0.820336D-02
     24  0.921105D-02 -0.646326D-02 -0.282806D-01  0.106207D-01 -0.312284D-02
     25 -0.220722D-01  0.187202D-01  0.106206D-01  0.361468D-02 -0.190253D-02
     26 -0.804943D-02  0.820340D-02  0.312284D-02  0.190257D-02 -0.378206D-03
     27  0.114010D-01 -0.631640D-02 -0.345754D-02 -0.194757D-02  0.606129D-03
     28  0.927038D-02 -0.538992D-02 -0.505728D-02 -0.163670D-02  0.392030D-03
     29  0.642194D-02 -0.466790D-02 -0.339750D-02 -0.362564D-03  0.357613D-03
     30 -0.665390D-02  0.374623D-02  0.304700D-02  0.704040D-03 -0.862021D-04
                6             7             8             9            10 
      6  0.292171D+00
      7 -0.287284D-02  0.190490D+00
      8  0.726925D-02  0.998760D-01  0.100440D+00
      9 -0.100640D-01  0.119943D+00  0.563349D-01  0.120244D+00
     10 -0.810324D-02 -0.100410D-01 -0.182902D-01  0.106227D-01  0.697986D+00
     11 -0.854527D-02 -0.122977D-01  0.455511D-02  0.101822D-01 -0.909519D-01
     12  0.267936D-02 -0.258392D-02 -0.144417D-01  0.516382D-02  0.105984D+00
     13  0.434195D-03 -0.172548D-03  0.709675D-03 -0.272189D-03 -0.154782D+00
     14 -0.592833D-03 -0.450011D-03  0.192975D-03 -0.656705D-03  0.113982D+00
     15  0.282849D-03  0.109348D-02 -0.436851D-04 -0.897154D-03 -0.702671D-01
     16  0.578451D-02  0.768548D-02 -0.702630D-02 -0.550784D-02 -0.402141D+00
     17 -0.695627D-02 -0.113530D-01 -0.941616D-03  0.586697D-02 -0.118939D-01
     18  0.345783D-02 -0.308168D-02 -0.432719D-03  0.341934D-02 -0.451838D-01
     19 -0.136622D-03 -0.133109D-02 -0.140007D-02  0.108502D-02 -0.657185D-02
     20 -0.267167D-03 -0.123092D-02  0.642735D-03  0.115036D-02 -0.208588D-02
     21  0.101059D-02  0.245355D-02  0.710105D-04 -0.827881D-03  0.161856D-01
     22  0.114011D-01  0.927033D-02 -0.642189D-02 -0.665377D-02 -0.226813D-01
     23  0.631657D-02  0.539014D-02 -0.466800D-02 -0.374635D-02  0.619637D-01
     24 -0.345757D-02 -0.505724D-02  0.339746D-02  0.304688D-02 -0.460728D-02
     25 -0.194757D-02 -0.163668D-02  0.362553D-03  0.704045D-03 -0.152422D-01
     26 -0.606150D-03 -0.392041D-03  0.357599D-03  0.862034D-04 -0.984866D-02
     27  0.674878D-03  0.125507D-02 -0.737038D-03 -0.766515D-03  0.578444D-02
     28  0.125509D-02  0.781170D-03 -0.779771D-03 -0.358870D-03  0.768517D-02
     29  0.737049D-03  0.779771D-03  0.172664D-03 -0.258722D-03  0.702623D-02
     30 -0.766539D-03 -0.358880D-03  0.258708D-03  0.915715D-04 -0.550766D-02
               11            12            13            14            15 
     11  0.616959D+00
     12 -0.113085D+00  0.175135D+00
     13  0.117683D+00 -0.531943D-01  0.158557D+00
     14 -0.210211D+00  0.596810D-01 -0.133621D+00  0.213833D+00
     15  0.497987D-01 -0.595211D-01  0.558123D-01 -0.700556D-01  0.477952D-01
     16  0.118914D-01 -0.451833D-01 -0.657175D-02  0.208535D-02  0.161857D-01
     17 -0.979984D-01 -0.942573D-02  0.227464D-01  0.329625D-02 -0.394650D-02
     18  0.942404D-02 -0.650446D-01 -0.529636D-02  0.955401D-04  0.393509D-02
     19 -0.227466D-01 -0.529699D-02 -0.331883D-03  0.638040D-03  0.291285D-03
     20  0.329590D-02 -0.956097D-04 -0.638041D-03 -0.414129D-03 -0.114387D-03
     21  0.394652D-02  0.393516D-02  0.291202D-03  0.114417D-03 -0.125296D-02
     22  0.696710D-01  0.947931D-02 -0.516652D-02  0.339358D-02  0.699676D-02
     23 -0.346242D-02  0.664326D-02  0.306989D-03  0.109338D-02  0.885201D-02
     24  0.593709D-02  0.570582D-02 -0.412441D-02  0.385170D-02  0.913717D-02
     25 -0.780806D-02  0.388350D-02  0.971284D-03 -0.140186D-02 -0.398405D-02
     26 -0.817851D-02 -0.338725D-03  0.194149D-03 -0.270636D-03 -0.659259D-03
     27  0.695623D-02  0.345762D-02 -0.136604D-03  0.267148D-03  0.101060D-02
     28  0.113530D-01 -0.308168D-02 -0.133104D-02  0.123087D-02  0.245359D-02
     29 -0.941565D-03  0.432663D-03  0.140006D-02  0.642767D-03 -0.710049D-04
     30 -0.586699D-02  0.341917D-02  0.108497D-02 -0.115035D-02 -0.827901D-03
               16            17            18            19            20 
     16  0.697982D+00
     17  0.909486D-01  0.616955D+00
     18  0.105987D+00  0.113090D+00  0.175140D+00
     19 -0.154777D+00 -0.117679D+00 -0.531972D-01  0.158551D+00
     20 -0.113977D+00 -0.210209D+00 -0.596855D-01  0.133617D+00  0.213832D+00
     21 -0.702705D-01 -0.498045D-01 -0.595259D-01  0.558155D-01  0.700609D-01
     22 -0.105660D+00  0.902179D-01 -0.148779D-01  0.835675D-02 -0.129687D-01
     23  0.438229D-01 -0.280849D+00 -0.469278D-01  0.691295D-02 -0.577971D-02
     24 -0.490870D-02 -0.412514D-01 -0.749311D-01  0.540163D-02 -0.844627D-02
     25  0.114464D-01 -0.134206D-01  0.487091D-02  0.471505D-03 -0.117445D-02
     26  0.608048D-02 -0.231664D-01 -0.237020D-01  0.186858D-02 -0.238376D-02
     27 -0.810330D-02  0.854548D-02  0.267961D-02  0.434150D-03  0.592881D-03
     28 -0.100414D-01  0.122975D-01 -0.258454D-02 -0.172547D-03  0.449970D-03
     29  0.182901D-01  0.455531D-02  0.144420D-01 -0.709702D-03  0.193019D-03
     30  0.106226D-01 -0.101820D-01  0.516393D-02 -0.272169D-03  0.656734D-03
               21            22            23            24            25 
     21  0.477999D-01
     22 -0.793749D-02  0.314204D+00
     23 -0.151959D-01 -0.203112D+00  0.515328D+00
     24  0.338288D-03  0.159466D+00  0.101842D+00  0.493842D+00
     25 -0.644104D-03 -0.248727D-01  0.499241D-02 -0.552084D-01  0.495173D-01
     26 -0.104355D-02 -0.430183D-02 -0.792297D-01 -0.107421D+00  0.103733D-01
     27  0.282941D-03 -0.675409D-01 -0.121062D+00 -0.285987D+00  0.617263D-01
     28  0.109359D-02 -0.192848D+00  0.781469D-01 -0.110793D+00 -0.219744D-02
     29  0.436914D-04  0.757686D-01 -0.107493D+00  0.516758D-01 -0.874093D-02
     30 -0.897168D-03 -0.995436D-01  0.568148D-01 -0.119414D+00 -0.200213D-01
               26            27            28            29            30 
     26  0.983020D-01
     27  0.118418D+00  0.292169D+00
     28  0.217290D-02 -0.287270D-02  0.190491D+00
     29  0.674417D-02 -0.726959D-02 -0.998735D-01  0.100437D+00
     30  0.121436D-01 -0.100642D-01  0.119946D+00 -0.563345D-01  0.120248D+00
 Leave Link  716 at Thu Apr  6 10:17:21 2023, MaxMem=  1073741824 cpu:               0.0 elap:               0.0
 (Enter /home/gaussian/g16/l123.exe)
 IRC-IRC-IRC-IRC-IRC-IRC-IRC-IRC-IRC-IRC-IRC-IRC-IRC-IRC-IRC-IRC-IRC-IRC
          ******** Start new reaction path calculation ********
 Current Structure is TS -> form Hessian eigenvectors.
                            Diagonalizing Hessian.
 Supplied step size of   0.0500 bohr.
    Integration on MW PES will use step size of   0.0736 sqrt(amu)*bohr.
 Point Number:   0          Path Number:   1
 Calculating another point on the path.
 Point Number  1 in FORWARD path direction.
 Using LQA Reaction Path Following.
 IRC-IRC-IRC-IRC-IRC-IRC-IRC-IRC-IRC-IRC-IRC-IRC-IRC-IRC-IRC-IRC-IRC-IRC
 Leave Link  123 at Thu Apr  6 10:17:21 2023, MaxMem=  1073741824 cpu:               0.1 elap:               0.0
 (Enter /home/gaussian/g16/l202.exe)
                          Input orientation:                          
 ---------------------------------------------------------------------
 Center     Atomic      Atomic             Coordinates (Angstroms)
 Number     Number       Type             X           Y           Z
 ---------------------------------------------------------------------
      1          6           0       -1.068923   -0.648766    0.116582
      2          1           0       -0.873905   -1.109717    1.075080
      3          1           0       -1.882309   -1.120482   -0.440767
      4          6           0       -0.682208    0.708570   -0.082849
      5          1           0       -1.335683    1.518005   -0.398894
      6          6           0        0.682199    0.708576    0.082844
      7          1           0        1.335660    1.518012    0.398917
      8          6           0        1.068933   -0.648756   -0.116580
      9          1           0        0.873925   -1.109723   -1.075073
     10          1           0        1.882318   -1.120455    0.440782
 ---------------------------------------------------------------------
                    Distance matrix (angstroms):
                    1          2          3          4          5
     1  C    0.000000
     2  H    1.081308   0.000000
     3  H    1.093046   1.820656   0.000000
     4  C    1.425371   2.164190   2.216704   0.000000
     5  H    2.243161   3.048075   2.694840   1.087243   0.000000
     6  C    2.215839   2.590787   3.193168   1.374431   2.226902
     7  H    3.249101   3.499190   4.245237   2.226901   2.787933
     8  C    2.150533   2.325329   3.006235   2.215844   3.249112
     9  H    2.325334   2.770932   2.828300   2.590800   3.499219
    10  H    3.006230   2.828288   3.866463   3.193167   4.245239
                    6          7          8          9         10
     6  C    0.000000
     7  H    1.087244   0.000000
     8  C    1.425371   2.243159   0.000000
     9  H    2.164195   3.048087   1.081308   0.000000
    10  H    2.216700   2.694827   1.093045   1.820655   0.000000
 Symmetry turned off by external request.
 Stoichiometry    C4H6
 Framework group  C1[X(C4H6)]
 Deg. of freedom    24
 Full point group                 C1      NOp   1
 Rotational constants (GHZ):          14.3050330           9.2896879           6.1116661
 Leave Link  202 at Thu Apr  6 10:17:21 2023, MaxMem=  1073741824 cpu:               0.0 elap:               0.0
 (Enter /home/gaussian/g16/l301.exe)
 Standard basis: 6-311G(d) (5D, 7F)
 Ernie: Thresh=  0.10000D-02 Tol=  0.10000D-05 Strict=F.
    90 basis functions,   158 primitive gaussians,    94 cartesian basis functions
    15 alpha electrons       15 beta electrons
       nuclear repulsion energy       109.6503462034 Hartrees.
 IExCor=  402 DFT=T Ex+Corr=B3LYP ExCW=0 ScaHFX=  0.200000
 ScaDFX=  0.800000  0.720000  1.000000  0.810000 ScalE2=  1.000000  1.000000
 IRadAn=      5 IRanWt=     -1 IRanGd=            0 ICorTp=0 IEmpDi=141
 NAtoms=   10 NActive=   10 NUniq=   10 SFac= 1.00D+00 NAtFMM=   60 NAOKFM=F Big=F
 Integral buffers will be    131072 words long.
 Raffenetti 2 integral format.
 Two-electron integral symmetry is turned off.
 R6Disp:  Grimme-D3(BJ) Dispersion energy=       -0.0116773596 Hartrees.
 Nuclear repulsion after empirical dispersion term =      109.6386688438 Hartrees.
 Leave Link  301 at Thu Apr  6 10:17:21 2023, MaxMem=  1073741824 cpu:               0.0 elap:               0.0
 (Enter /home/gaussian/g16/l302.exe)
 NPDir=0 NMtPBC=     1 NCelOv=     1 NCel=       1 NClECP=     1 NCelD=      1
         NCelK=      1 NCelE2=     1 NClLst=     1 CellRange=     0.0.
 One-electron integrals computed using PRISM.
 NBasis=    90 RedAO= T EigKep=  1.23D-03  NBF=    90
 NBsUse=    90 1.00D-06 EigRej= -1.00D+00 NBFU=    90
 Precomputing XC quadrature grid using
 IXCGrd= 4 IRadAn=           5 IRanWt=          -1 IRanGd=           0 AccXCQ= 0.00D+00.
 Generated NRdTot=       0 NPtTot=           0 NUsed=           0 NTot=          32
 NSgBfM=    94    94    94    94    94 MxSgAt=    10 MxSgA2=    10.
 Leave Link  302 at Thu Apr  6 10:17:21 2023, MaxMem=  1073741824 cpu:               0.4 elap:               0.1
 (Enter /home/gaussian/g16/l303.exe)
 DipDrv:  MaxL=1.
 Leave Link  303 at Thu Apr  6 10:17:21 2023, MaxMem=  1073741824 cpu:               0.0 elap:               0.0
 (Enter /home/gaussian/g16/l401.exe)
 Initial guess from the checkpoint file:  "C4H6_electrocyclization_IRC_forward.chk"
 B after Tr=     0.000000   -0.044510    0.000001
         Rot=    1.000000    0.000000   -0.000119    0.000000 Ang=  -0.01 deg.
 Guess basis will be translated and rotated to current coordinates.
 JPrj=2 DoOrth=T DoCkMO=T.
 Generating alternative initial guess.
 ExpMin= 1.03D-01 ExpMax= 4.56D+03 ExpMxC= 6.82D+02 IAcc=3 IRadAn=         5 AccDes= 0.00D+00
 Harris functional with IExCor=  402 and IRadAn=       5 diagonalized for initial guess.
 HarFok:  IExCor=  402 AccDes= 0.00D+00 IRadAn=         5 IDoV= 1 UseB2=F ITyADJ=14
 ICtDFT=  3500011 ScaDFX=  1.000000  1.000000  1.000000  1.000000
 FoFCou: FMM=F IPFlag=           0 FMFlag=      100000 FMFlg1=           0
         NFxFlg=           0 DoJE=T BraDBF=F KetDBF=T FulRan=T
         wScrn=  0.000000 ICntrl=       500 IOpCl=  0 I1Cent=   200000004 NGrid=           0
         NMat0=    1 NMatS0=      1 NMatT0=    0 NMatD0=    1 NMtDS0=    0 NMtDT0=    0
 Symmetry not used in FoFCou.
 Harris En= -156.001843684115    
 Leave Link  401 at Thu Apr  6 10:17:21 2023, MaxMem=  1073741824 cpu:               1.7 elap:               0.3
 (Enter /home/gaussian/g16/l502.exe)
 Keep R1 ints in memory in canonical form, NReq=15734758.
 FoFCou: FMM=F IPFlag=           0 FMFlag=           0 FMFlg1=           0
         NFxFlg=           0 DoJE=F BraDBF=F KetDBF=F FulRan=T
         wScrn=  0.000000 ICntrl=       600 IOpCl=  0 I1Cent=           0 NGrid=           0
         NMat0=    1 NMatS0=   4095 NMatT0=    0 NMatD0=    1 NMtDS0=    0 NMtDT0=    0
 Symmetry not used in FoFCou.
 Two-electron integral symmetry not used.
 Closed shell SCF:
 Using DIIS extrapolation, IDIIS=  1040.
 NGot=  1073741824 LenX=  1065335684 LenY=  1065326407
 Requested convergence on RMS density matrix=1.00D-08 within 128 cycles.
 Requested convergence on MAX density matrix=1.00D-06.
 Requested convergence on             energy=1.00D-06.
 No special actions if energy rises.
 Integral accuracy reduced to 1.0D-05 until final iterations.

 Cycle   1  Pass 0  IDiag  1:
 E= -155.962961135925    
 DIIS: error= 9.51D-04 at cycle   1 NSaved=   1.
 NSaved= 1 IEnMin= 1 EnMin= -155.962961135925     IErMin= 1 ErrMin= 9.51D-04
 ErrMax= 9.51D-04  0.00D+00 EMaxC= 1.00D-01 BMatC= 4.66D-05 BMatP= 4.66D-05
 IDIUse=3 WtCom= 9.90D-01 WtEn= 9.51D-03
 Coeff-Com:  0.100D+01
 Coeff-En:   0.100D+01
 Coeff:      0.100D+01
 Gap=     0.734 Goal=   None    Shift=    0.000
 RMSDP=1.34D-04 MaxDP=1.10D-03              OVMax= 8.89D-03

 Cycle   2  Pass 0  IDiag  1:
 E= -155.963097960398     Delta-E=       -0.000136824473 Rises=F Damp=F
 DIIS: error= 2.47D-04 at cycle   2 NSaved=   2.
 NSaved= 2 IEnMin= 2 EnMin= -155.963097960398     IErMin= 2 ErrMin= 2.47D-04
 ErrMax= 2.47D-04  0.00D+00 EMaxC= 1.00D-01 BMatC= 2.28D-06 BMatP= 4.66D-05
 IDIUse=3 WtCom= 9.98D-01 WtEn= 2.47D-03
 Coeff-Com: -0.262D-01 0.103D+01
 Coeff-En:   0.000D+00 0.100D+01
 Coeff:     -0.261D-01 0.103D+01
 Gap=     0.216 Goal=   None    Shift=    0.000
 RMSDP=5.04D-05 MaxDP=4.42D-04 DE=-1.37D-04 OVMax= 2.50D-03

 Cycle   3  Pass 0  IDiag  1:
 E= -155.963102424881     Delta-E=       -0.000004464483 Rises=F Damp=F
 DIIS: error= 1.72D-04 at cycle   3 NSaved=   3.
 NSaved= 3 IEnMin= 3 EnMin= -155.963102424881     IErMin= 3 ErrMin= 1.72D-04
 ErrMax= 1.72D-04  0.00D+00 EMaxC= 1.00D-01 BMatC= 2.21D-06 BMatP= 2.28D-06
 IDIUse=3 WtCom= 9.98D-01 WtEn= 1.72D-03
 Coeff-Com: -0.495D-01 0.532D+00 0.517D+00
 Coeff-En:   0.000D+00 0.000D+00 0.100D+01
 Coeff:     -0.494D-01 0.532D+00 0.518D+00
 Gap=     0.216 Goal=   None    Shift=    0.000
 RMSDP=1.99D-05 MaxDP=2.63D-04 DE=-4.46D-06 OVMax= 1.06D-03

 Cycle   4  Pass 0  IDiag  1:
 E= -155.963104799049     Delta-E=       -0.000002374167 Rises=F Damp=F
 DIIS: error= 6.94D-05 at cycle   4 NSaved=   4.
 NSaved= 4 IEnMin= 4 EnMin= -155.963104799049     IErMin= 4 ErrMin= 6.94D-05
 ErrMax= 6.94D-05  0.00D+00 EMaxC= 1.00D-01 BMatC= 2.20D-07 BMatP= 2.21D-06
 IDIUse=1 WtCom= 1.00D+00 WtEn= 0.00D+00
 Coeff-Com: -0.158D-01 0.721D-01 0.252D+00 0.692D+00
 Coeff:     -0.158D-01 0.721D-01 0.252D+00 0.692D+00
 Gap=     0.216 Goal=   None    Shift=    0.000
 RMSDP=5.83D-06 MaxDP=5.63D-05 DE=-2.37D-06 OVMax= 3.59D-04

 Initial convergence to 1.0D-05 achieved.  Increase integral accuracy.
 Cycle   5  Pass 1  IDiag  1:
 E= -155.963107252727     Delta-E=       -0.000002453679 Rises=F Damp=F
 DIIS: error= 1.43D-05 at cycle   1 NSaved=   1.
 NSaved= 1 IEnMin= 1 EnMin= -155.963107252727     IErMin= 1 ErrMin= 1.43D-05
 ErrMax= 1.43D-05  0.00D+00 EMaxC= 1.00D-01 BMatC= 2.26D-08 BMatP= 2.26D-08
 IDIUse=1 WtCom= 1.00D+00 WtEn= 0.00D+00
 Coeff-Com:  0.100D+01
 Coeff:      0.100D+01
 Gap=     0.216 Goal=   None    Shift=    0.000
 RMSDP=5.83D-06 MaxDP=5.63D-05 DE=-2.45D-06 OVMax= 1.69D-04

 Cycle   6  Pass 1  IDiag  1:
 E= -155.963107244545     Delta-E=        0.000000008183 Rises=F Damp=F
 DIIS: error= 2.02D-05 at cycle   2 NSaved=   2.
 NSaved= 2 IEnMin= 1 EnMin= -155.963107252727     IErMin= 1 ErrMin= 1.43D-05
 ErrMax= 2.02D-05  0.00D+00 EMaxC= 1.00D-01 BMatC= 3.62D-08 BMatP= 2.26D-08
 IDIUse=1 WtCom= 1.00D+00 WtEn= 0.00D+00
 Coeff-Com:  0.561D+00 0.439D+00
 Coeff:      0.561D+00 0.439D+00
 Gap=     0.216 Goal=   None    Shift=    0.000
 RMSDP=1.93D-06 MaxDP=2.82D-05 DE= 8.18D-09 OVMax= 6.49D-05

 Cycle   7  Pass 1  IDiag  1:
 E= -155.963107281976     Delta-E=       -0.000000037431 Rises=F Damp=F
 DIIS: error= 3.46D-06 at cycle   3 NSaved=   3.
 NSaved= 3 IEnMin= 3 EnMin= -155.963107281976     IErMin= 3 ErrMin= 3.46D-06
 ErrMax= 3.46D-06  0.00D+00 EMaxC= 1.00D-01 BMatC= 5.46D-10 BMatP= 2.26D-08
 IDIUse=1 WtCom= 1.00D+00 WtEn= 0.00D+00
 Coeff-Com:  0.185D+00 0.173D+00 0.641D+00
 Coeff:      0.185D+00 0.173D+00 0.641D+00
 Gap=     0.216 Goal=   None    Shift=    0.000
 RMSDP=4.57D-07 MaxDP=4.68D-06 DE=-3.74D-08 OVMax= 2.45D-05

 Cycle   8  Pass 1  IDiag  1:
 E= -155.963107282549     Delta-E=       -0.000000000573 Rises=F Damp=F
 DIIS: error= 1.96D-06 at cycle   4 NSaved=   4.
 NSaved= 4 IEnMin= 4 EnMin= -155.963107282549     IErMin= 4 ErrMin= 1.96D-06
 ErrMax= 1.96D-06  0.00D+00 EMaxC= 1.00D-01 BMatC= 2.02D-10 BMatP= 5.46D-10
 IDIUse=1 WtCom= 1.00D+00 WtEn= 0.00D+00
 Coeff-Com: -0.425D-01-0.191D-01 0.382D+00 0.679D+00
 Coeff:     -0.425D-01-0.191D-01 0.382D+00 0.679D+00
 Gap=     0.216 Goal=   None    Shift=    0.000
 RMSDP=1.77D-07 MaxDP=2.19D-06 DE=-5.73D-10 OVMax= 9.71D-06

 Cycle   9  Pass 1  IDiag  1:
 E= -155.963107282797     Delta-E=       -0.000000000247 Rises=F Damp=F
 DIIS: error= 1.78D-07 at cycle   5 NSaved=   5.
 NSaved= 5 IEnMin= 5 EnMin= -155.963107282797     IErMin= 5 ErrMin= 1.78D-07
 ErrMax= 1.78D-07  0.00D+00 EMaxC= 1.00D-01 BMatC= 2.83D-12 BMatP= 2.02D-10
 IDIUse=1 WtCom= 1.00D+00 WtEn= 0.00D+00
 Coeff-Com: -0.278D-01-0.208D-01 0.762D-01 0.177D+00 0.795D+00
 Coeff:     -0.278D-01-0.208D-01 0.762D-01 0.177D+00 0.795D+00
 Gap=     0.216 Goal=   None    Shift=    0.000
 RMSDP=4.08D-08 MaxDP=3.72D-07 DE=-2.47D-10 OVMax= 1.79D-06

 Cycle  10  Pass 1  IDiag  1:
 E= -155.963107282801     Delta-E=       -0.000000000004 Rises=F Damp=F
 DIIS: error= 6.18D-08 at cycle   6 NSaved=   6.
 NSaved= 6 IEnMin= 6 EnMin= -155.963107282801     IErMin= 6 ErrMin= 6.18D-08
 ErrMax= 6.18D-08  0.00D+00 EMaxC= 1.00D-01 BMatC= 1.81D-13 BMatP= 2.83D-12
 IDIUse=1 WtCom= 1.00D+00 WtEn= 0.00D+00
 Coeff-Com: -0.758D-02-0.619D-02 0.128D-01 0.333D-01 0.252D+00 0.716D+00
 Coeff:     -0.758D-02-0.619D-02 0.128D-01 0.333D-01 0.252D+00 0.716D+00
 Gap=     0.216 Goal=   None    Shift=    0.000
 RMSDP=8.69D-09 MaxDP=1.06D-07 DE=-4.15D-12 OVMax= 5.72D-07

 SCF Done:  E(RB3LYP) =  -155.963107283     A.U. after   10 cycles
            NFock= 10  Conv=0.87D-08     -V/T= 2.0045
 KE= 1.552685672612D+02 PE=-5.805986700651D+02 EE= 1.597283266774D+02
 Leave Link  502 at Thu Apr  6 10:17:22 2023, MaxMem=  1073741824 cpu:               9.8 elap:               1.3
 (Enter /home/gaussian/g16/l801.exe)
 DoSCS=F DFT=T ScalE2(SS,OS)=  1.000000  1.000000
 Range of M.O.s used for correlation:     1    90
 NBasis=    90 NAE=    15 NBE=    15 NFC=     0 NFV=     0
 NROrb=     90 NOA=    15 NOB=    15 NVA=    75 NVB=    75
 Leave Link  801 at Thu Apr  6 10:17:22 2023, MaxMem=  1073741824 cpu:               0.0 elap:               0.0
 (Enter /home/gaussian/g16/l1101.exe)
 Leave Link 1101 at Thu Apr  6 10:17:22 2023, MaxMem=  1073741824 cpu:               0.0 elap:               0.0
 (Enter /home/gaussian/g16/l1102.exe)
 Symmetrizing basis deriv contribution to polar:
 IMax=3 JMax=2 DiffMx= 0.00D+00
 Leave Link 1102 at Thu Apr  6 10:17:22 2023, MaxMem=  1073741824 cpu:               0.0 elap:               0.0
 (Enter /home/gaussian/g16/l1110.exe)
 Leave Link 1110 at Thu Apr  6 10:17:22 2023, MaxMem=  1073741824 cpu:               0.0 elap:               0.0
 (Enter /home/gaussian/g16/l1002.exe)
 Minotr:  Closed shell wavefunction.
 Leave Link 1002 at Thu Apr  6 10:17:23 2023, MaxMem=  1073741824 cpu:               0.0 elap:               0.0
 (Enter /home/gaussian/g16/l701.exe)
 ... and contract with generalized density number  0.
 Compute integral first derivatives.
 R6Disp: Adding Grimme-D3(BJ) dispersion energy 1st derivatives to the gradient.
 Leave Link  701 at Thu Apr  6 10:17:23 2023, MaxMem=  1073741824 cpu:               0.4 elap:               0.1
 (Enter /home/gaussian/g16/l702.exe)
 L702 exits ... SP integral derivatives will be done elsewhere.
 Leave Link  702 at Thu Apr  6 10:17:23 2023, MaxMem=  1073741824 cpu:               0.0 elap:               0.0
 (Enter /home/gaussian/g16/l703.exe)
 Integral derivatives from FoFJK, PRISM(SPDF).
 Compute integral first derivatives, UseDBF=F ICtDFT=           0.
 Calling FoFJK, ICntrl=      2127 FMM=F ISym2X=0 I1Cent= 0 IOpClX= 0 NMat=1 NMatS=1 NMatT=0.
 FoFJK:  IHMeth= 1 ICntrl=    2127 DoSepK=F KAlg= 0 I1Cent=           0 FoldK=F
 IRaf=         0 NMat=       1 IRICut=       1 DoRegI=T DoRafI=F ISym2E= 0 IDoP0=0 IntGTp=1.
 FoFCou: FMM=F IPFlag=           0 FMFlag=      100000 FMFlg1=         800
         NFxFlg=           0 DoJE=F BraDBF=F KetDBF=F FulRan=T
         wScrn=  0.000000 ICntrl=      2127 IOpCl=  0 I1Cent=           0 NGrid=           0
         NMat0=    1 NMatS0=      1 NMatT0=    0 NMatD0=    1 NMtDS0=    0 NMtDT0=    0
 Symmetry not used in FoFCou.
 Leave Link  703 at Thu Apr  6 10:17:23 2023, MaxMem=  1073741824 cpu:               5.3 elap:               0.7
 (Enter /home/gaussian/g16/l716.exe)
 Dipole        = 3.62024064D-06-7.80045020D-02 1.13813225D-05
 Polarizability= 0.00000000D+00 0.00000000D+00 0.00000000D+00
                 0.00000000D+00 0.00000000D+00 0.00000000D+00
 -------------------------------------------------------------------
 Center     Atomic                   Forces (Hartrees/Bohr)
 Number     Number              X              Y              Z
 -------------------------------------------------------------------
      1        6          -0.002324433    0.000961591    0.000203088
      2        1           0.000280019   -0.000159967   -0.000294797
      3        1          -0.000361163    0.000204735    0.000204172
      4        6          -0.000462453   -0.000912687   -0.000340999
      5        1           0.000060922   -0.000094465   -0.000237189
      6        6           0.000463737   -0.000912409    0.000342274
      7        1          -0.000061187   -0.000094651    0.000235866
      8        6           0.002323373    0.000962909   -0.000202546
      9        1          -0.000280175   -0.000159458    0.000294299
     10        1           0.000361360    0.000204401   -0.000204169
 -------------------------------------------------------------------
 Cartesian Forces:  Max     0.002324433 RMS     0.000730520
 Z-matrix is all fixed cartesians, so copy forces.
 Leave Link  716 at Thu Apr  6 10:17:23 2023, MaxMem=  1073741824 cpu:               0.0 elap:               0.0
 (Enter /home/gaussian/g16/l123.exe)
 IRC-IRC-IRC-IRC-IRC-IRC-IRC-IRC-IRC-IRC-IRC-IRC-IRC-IRC-IRC-IRC-IRC-IRC
 Pt  1 Step number   1 out of a maximum of  20
 Using modified Bulirsch-Stoer corrector integration.
   Using distance weighted interpolants to fit PES.
 PreDWI: IReCr0= 2 IReCr1= 1 IReCr2= 1 IReCr3= 1
 Modified Bulirsch-Stoer Extrapolation Cycles:
    EPS =    0.000010000000000
    Cycle     1 NS=    48
      PEZero:  N= 2 I= 1 D=  1.92D-04 Err=  2.63D-04
    Cycle     2 NS=    64 Truncation Error =  0.000263476
      PEZero:  N= 3 I= 2 D=  1.92D-04 Err=  1.76D-04
      PEZero:  N= 3 I= 1 D=  3.83D-04 Err=  1.35D-08
    Cycle     3 NS=    96 Truncation Error =  0.000000013
 BS completed in    3 cycles and     208 integration steps.
 Maximum DWI energy   std dev =  0.000000011 at pt     5
 Maximum DWI gradient std dev =  0.044159015 at pt     2
 SUMMARY OF CORRECTOR INTEGRATION:
   Predictor End Point Energy =  -155.963107
   Old End Point Energy       =  -155.963107
   Corrected End Point Energy =  -155.963107
   Predictor End-Start Dist.  =     0.073629
   Old End-Start Dist.        =     0.073629
   New End-Start Dist.        =     0.073627
   New End-Old End Dist.      =     0.000455
 CORRECTOR INTEGRATION CONVERGENCE:
   Recorrection delta-x convergence threshold:    0.010000
   Delta-x Convergence Met
 Point Number:   1          Path Number:   1
                    CURRENT STRUCTURE
                Cartesian Coordinates (Ang):                
 ---------------------------------------------------------------------
 Center     Atomic                     Coordinates (Angstroms)
 Number     Number                        X           Y           Z
 ---------------------------------------------------------------------
      1          6                   -1.068908   -0.648762    0.116585
      2          1                   -0.873958   -1.109739    1.074955
      3          1                   -1.882289   -1.120441   -0.440744
      4          6                   -0.682226    0.708565   -0.082846
      5          1                   -1.335671    1.517994   -0.398904
      6          6                    0.682217    0.708572    0.082842
      7          1                    1.335651    1.518005    0.398913
      8          6                    1.068916   -0.648751   -0.116583
      9          1                    0.873976   -1.109738   -1.074950
     10          1                    1.882299   -1.120416    0.440755
 ---------------------------------------------------------------------
   CHANGE IN THE REACTION COORDINATE =    0.07363
   NET REACTION COORDINATE UP TO THIS POINT =    0.07363
  # OF POINTS ALONG THE PATH =   1
  # OF STEPS =   1

 Calculating another point on the path.
 Point Number  2 in FORWARD path direction.
 Using LQA Reaction Path Following.
   LQA: T_Est iteration completed in    3 iterations.
 IRC-IRC-IRC-IRC-IRC-IRC-IRC-IRC-IRC-IRC-IRC-IRC-IRC-IRC-IRC-IRC-IRC-IRC
 Leave Link  123 at Thu Apr  6 10:17:23 2023, MaxMem=  1073741824 cpu:               0.1 elap:               0.0
 (Enter /home/gaussian/g16/l202.exe)
                          Input orientation:                          
 ---------------------------------------------------------------------
 Center     Atomic      Atomic             Coordinates (Angstroms)
 Number     Number       Type             X           Y           Z
 ---------------------------------------------------------------------
      1          6           0       -1.074061   -0.646590    0.116897
      2          1           0       -0.866048   -1.114594    1.069159
      3          1           0       -1.892142   -1.115296   -0.435768
      4          6           0       -0.683148    0.706560   -0.083582
      5          1           0       -1.334310    1.515704   -0.405194
      6          6           0        0.683139    0.706567    0.083579
      7          1           0        1.334291    1.515717    0.405196
      8          6           0        1.074069   -0.646578   -0.116895
      9          1           0        0.866064   -1.114591   -1.069155
     10          1           0        1.892152   -1.115273    0.435777
 ---------------------------------------------------------------------
                    Distance matrix (angstroms):
                    1          2          3          4          5
     1  C    0.000000
     2  H    1.081250   0.000000
     3  H    1.092877   1.821449   0.000000
     4  C    1.422680   2.163069   2.214692   0.000000
     5  H    2.239603   3.051468   2.689661   1.087273   0.000000
     6  C    2.218083   2.586112   3.197027   1.376475   2.227937
     7  H    3.249438   3.492976   4.247273   2.227936   2.788936
     8  C    2.160814   2.321598   3.019898   2.218085   3.249442
     9  H    2.321601   2.751836   2.829997   2.586117   3.492985
    10  H    3.019895   2.829990   3.883359   3.197026   4.247274
                    6          7          8          9         10
     6  C    0.000000
     7  H    1.087272   0.000000
     8  C    1.422680   2.239602   0.000000
     9  H    2.163070   3.051470   1.081250   0.000000
    10  H    2.214691   2.689657   1.092877   1.821449   0.000000
 Symmetry turned off by external request.
 Stoichiometry    C4H6
 Framework group  C1[X(C4H6)]
 Deg. of freedom    24
 Full point group                 C1      NOp   1
 Rotational constants (GHZ):          14.3742669           9.2361511           6.0982083
 Leave Link  202 at Thu Apr  6 10:17:23 2023, MaxMem=  1073741824 cpu:               0.0 elap:               0.0
 (Enter /home/gaussian/g16/l301.exe)
 Standard basis: 6-311G(d) (5D, 7F)
 Ernie: Thresh=  0.10000D-02 Tol=  0.10000D-05 Strict=F.
    90 basis functions,   158 primitive gaussians,    94 cartesian basis functions
    15 alpha electrons       15 beta electrons
       nuclear repulsion energy       109.6267963491 Hartrees.
 IExCor=  402 DFT=T Ex+Corr=B3LYP ExCW=0 ScaHFX=  0.200000
 ScaDFX=  0.800000  0.720000  1.000000  0.810000 ScalE2=  1.000000  1.000000
 IRadAn=      5 IRanWt=     -1 IRanGd=            0 ICorTp=0 IEmpDi=141
 NAtoms=   10 NActive=   10 NUniq=   10 SFac= 1.00D+00 NAtFMM=   60 NAOKFM=F Big=F
 Integral buffers will be    131072 words long.
 Raffenetti 2 integral format.
 Two-electron integral symmetry is turned off.
 R6Disp:  Grimme-D3(BJ) Dispersion energy=       -0.0117074683 Hartrees.
 Nuclear repulsion after empirical dispersion term =      109.6150888808 Hartrees.
 Leave Link  301 at Thu Apr  6 10:17:23 2023, MaxMem=  1073741824 cpu:               0.1 elap:               0.0
 (Enter /home/gaussian/g16/l302.exe)
 NPDir=0 NMtPBC=     1 NCelOv=     1 NCel=       1 NClECP=     1 NCelD=      1
         NCelK=      1 NCelE2=     1 NClLst=     1 CellRange=     0.0.
 One-electron integrals computed using PRISM.
 NBasis=    90 RedAO= T EigKep=  1.24D-03  NBF=    90
 NBsUse=    90 1.00D-06 EigRej= -1.00D+00 NBFU=    90
 Precomputing XC quadrature grid using
 IXCGrd= 4 IRadAn=           5 IRanWt=          -1 IRanGd=           0 AccXCQ= 0.00D+00.
 Generated NRdTot=       0 NPtTot=           0 NUsed=           0 NTot=          32
 NSgBfM=    94    94    94    94    94 MxSgAt=    10 MxSgA2=    10.
 Leave Link  302 at Thu Apr  6 10:17:24 2023, MaxMem=  1073741824 cpu:               0.4 elap:               0.1
 (Enter /home/gaussian/g16/l303.exe)
 DipDrv:  MaxL=1.
 Leave Link  303 at Thu Apr  6 10:17:24 2023, MaxMem=  1073741824 cpu:               0.1 elap:               0.0
 (Enter /home/gaussian/g16/l401.exe)
 Initial guess from the checkpoint file:  "C4H6_electrocyclization_IRC_forward.chk"
 B after Tr=     0.000000   -0.000124   -0.000001
         Rot=    1.000000    0.000000   -0.000114    0.000000 Ang=   0.01 deg.
 Guess basis will be translated and rotated to current coordinates.
 JPrj=2 DoOrth=T DoCkMO=T.
 Generating alternative initial guess.
 ExpMin= 1.03D-01 ExpMax= 4.56D+03 ExpMxC= 6.82D+02 IAcc=3 IRadAn=         5 AccDes= 0.00D+00
 Harris functional with IExCor=  402 and IRadAn=       5 diagonalized for initial guess.
 HarFok:  IExCor=  402 AccDes= 0.00D+00 IRadAn=         5 IDoV= 1 UseB2=F ITyADJ=14
 ICtDFT=  3500011 ScaDFX=  1.000000  1.000000  1.000000  1.000000
 FoFCou: FMM=F IPFlag=           0 FMFlag=      100000 FMFlg1=           0
         NFxFlg=           0 DoJE=T BraDBF=F KetDBF=T FulRan=T
         wScrn=  0.000000 ICntrl=       500 IOpCl=  0 I1Cent=   200000004 NGrid=           0
         NMat0=    1 NMatS0=      1 NMatT0=    0 NMatD0=    1 NMtDS0=    0 NMtDT0=    0
 Symmetry not used in FoFCou.
 Harris En= -156.002226229377    
 Leave Link  401 at Thu Apr  6 10:17:24 2023, MaxMem=  1073741824 cpu:               1.7 elap:               0.2
 (Enter /home/gaussian/g16/l502.exe)
 Keep R1 ints in memory in canonical form, NReq=15734758.
 FoFCou: FMM=F IPFlag=           0 FMFlag=           0 FMFlg1=           0
         NFxFlg=           0 DoJE=F BraDBF=F KetDBF=F FulRan=T
         wScrn=  0.000000 ICntrl=       600 IOpCl=  0 I1Cent=           0 NGrid=           0
         NMat0=    1 NMatS0=   4095 NMatT0=    0 NMatD0=    1 NMtDS0=    0 NMtDT0=    0
 Symmetry not used in FoFCou.
 Two-electron integral symmetry not used.
 Closed shell SCF:
 Using DIIS extrapolation, IDIIS=  1040.
 NGot=  1073741824 LenX=  1065335684 LenY=  1065326407
 Requested convergence on RMS density matrix=1.00D-08 within 128 cycles.
 Requested convergence on MAX density matrix=1.00D-06.
 Requested convergence on             energy=1.00D-06.
 No special actions if energy rises.
 Integral accuracy reduced to 1.0D-05 until final iterations.

 Cycle   1  Pass 0  IDiag  1:
 E= -155.963123613185    
 DIIS: error= 9.53D-04 at cycle   1 NSaved=   1.
 NSaved= 1 IEnMin= 1 EnMin= -155.963123613185     IErMin= 1 ErrMin= 9.53D-04
 ErrMax= 9.53D-04  0.00D+00 EMaxC= 1.00D-01 BMatC= 4.68D-05 BMatP= 4.68D-05
 IDIUse=3 WtCom= 9.90D-01 WtEn= 9.53D-03
 Coeff-Com:  0.100D+01
 Coeff-En:   0.100D+01
 Coeff:      0.100D+01
 Gap=     0.734 Goal=   None    Shift=    0.000
 RMSDP=1.34D-04 MaxDP=1.12D-03              OVMax= 8.98D-03

 Cycle   2  Pass 0  IDiag  1:
 E= -155.963260762071     Delta-E=       -0.000137148886 Rises=F Damp=F
 DIIS: error= 2.56D-04 at cycle   2 NSaved=   2.
 NSaved= 2 IEnMin= 2 EnMin= -155.963260762071     IErMin= 2 ErrMin= 2.56D-04
 ErrMax= 2.56D-04  0.00D+00 EMaxC= 1.00D-01 BMatC= 2.45D-06 BMatP= 4.68D-05
 IDIUse=3 WtCom= 9.97D-01 WtEn= 2.56D-03
 Coeff-Com: -0.205D-01 0.102D+01
 Coeff-En:   0.000D+00 0.100D+01
 Coeff:     -0.204D-01 0.102D+01
 Gap=     0.214 Goal=   None    Shift=    0.000
 RMSDP=5.14D-05 MaxDP=4.48D-04 DE=-1.37D-04 OVMax= 2.55D-03

 Cycle   3  Pass 0  IDiag  1:
 E= -155.963265008612     Delta-E=       -0.000004246541 Rises=F Damp=F
 DIIS: error= 1.84D-04 at cycle   3 NSaved=   3.
 NSaved= 3 IEnMin= 3 EnMin= -155.963265008612     IErMin= 3 ErrMin= 1.84D-04
 ErrMax= 1.84D-04  0.00D+00 EMaxC= 1.00D-01 BMatC= 2.57D-06 BMatP= 2.45D-06
 IDIUse=3 WtCom= 9.98D-01 WtEn= 1.84D-03
 Coeff-Com: -0.496D-01 0.542D+00 0.507D+00
 Coeff-En:   0.000D+00 0.000D+00 0.100D+01
 Coeff:     -0.495D-01 0.541D+00 0.508D+00
 Gap=     0.214 Goal=   None    Shift=    0.000
 RMSDP=2.09D-05 MaxDP=2.78D-04 DE=-4.25D-06 OVMax= 1.14D-03

 Cycle   4  Pass 0  IDiag  1:
 E= -155.963267756823     Delta-E=       -0.000002748211 Rises=F Damp=F
 DIIS: error= 7.30D-05 at cycle   4 NSaved=   4.
 NSaved= 4 IEnMin= 4 EnMin= -155.963267756823     IErMin= 4 ErrMin= 7.30D-05
 ErrMax= 7.30D-05  0.00D+00 EMaxC= 1.00D-01 BMatC= 2.36D-07 BMatP= 2.45D-06
 IDIUse=1 WtCom= 1.00D+00 WtEn= 0.00D+00
 Coeff-Com: -0.167D-01 0.812D-01 0.248D+00 0.688D+00
 Coeff:     -0.167D-01 0.812D-01 0.248D+00 0.688D+00
 Gap=     0.214 Goal=   None    Shift=    0.000
 RMSDP=6.03D-06 MaxDP=6.10D-05 DE=-2.75D-06 OVMax= 3.71D-04

 Initial convergence to 1.0D-05 achieved.  Increase integral accuracy.
 Cycle   5  Pass 1  IDiag  1:
 E= -155.963270049406     Delta-E=       -0.000002292583 Rises=F Damp=F
 DIIS: error= 1.52D-05 at cycle   1 NSaved=   1.
 NSaved= 1 IEnMin= 1 EnMin= -155.963270049406     IErMin= 1 ErrMin= 1.52D-05
 ErrMax= 1.52D-05  0.00D+00 EMaxC= 1.00D-01 BMatC= 2.54D-08 BMatP= 2.54D-08
 IDIUse=1 WtCom= 1.00D+00 WtEn= 0.00D+00
 Coeff-Com:  0.100D+01
 Coeff:      0.100D+01
 Gap=     0.214 Goal=   None    Shift=    0.000
 RMSDP=6.03D-06 MaxDP=6.10D-05 DE=-2.29D-06 OVMax= 1.77D-04

 Cycle   6  Pass 1  IDiag  1:
 E= -155.963270040134     Delta-E=        0.000000009273 Rises=F Damp=F
 DIIS: error= 2.09D-05 at cycle   2 NSaved=   2.
 NSaved= 2 IEnMin= 1 EnMin= -155.963270049406     IErMin= 1 ErrMin= 1.52D-05
 ErrMax= 2.09D-05  0.00D+00 EMaxC= 1.00D-01 BMatC= 4.06D-08 BMatP= 2.54D-08
 IDIUse=1 WtCom= 1.00D+00 WtEn= 0.00D+00
 Coeff-Com:  0.561D+00 0.439D+00
 Coeff:      0.561D+00 0.439D+00
 Gap=     0.214 Goal=   None    Shift=    0.000
 RMSDP=2.05D-06 MaxDP=2.98D-05 DE= 9.27D-09 OVMax= 6.81D-05

 Cycle   7  Pass 1  IDiag  1:
 E= -155.963270082274     Delta-E=       -0.000000042140 Rises=F Damp=F
 DIIS: error= 3.69D-06 at cycle   3 NSaved=   3.
 NSaved= 3 IEnMin= 3 EnMin= -155.963270082274     IErMin= 3 ErrMin= 3.69D-06
 ErrMax= 3.69D-06  0.00D+00 EMaxC= 1.00D-01 BMatC= 6.38D-10 BMatP= 2.54D-08
 IDIUse=1 WtCom= 1.00D+00 WtEn= 0.00D+00
 Coeff-Com:  0.198D+00 0.181D+00 0.621D+00
 Coeff:      0.198D+00 0.181D+00 0.621D+00
 Gap=     0.214 Goal=   None    Shift=    0.000
 RMSDP=4.72D-07 MaxDP=5.16D-06 DE=-4.21D-08 OVMax= 2.61D-05

 Cycle   8  Pass 1  IDiag  1:
 E= -155.963270082944     Delta-E=       -0.000000000670 Rises=F Damp=F
 DIIS: error= 2.13D-06 at cycle   4 NSaved=   4.
 NSaved= 4 IEnMin= 4 EnMin= -155.963270082944     IErMin= 4 ErrMin= 2.13D-06
 ErrMax= 2.13D-06  0.00D+00 EMaxC= 1.00D-01 BMatC= 2.27D-10 BMatP= 6.38D-10
 IDIUse=1 WtCom= 1.00D+00 WtEn= 0.00D+00
 Coeff-Com: -0.497D-01-0.262D-01 0.374D+00 0.702D+00
 Coeff:     -0.497D-01-0.262D-01 0.374D+00 0.702D+00
 Gap=     0.214 Goal=   None    Shift=    0.000
 RMSDP=1.92D-07 MaxDP=2.36D-06 DE=-6.70D-10 OVMax= 1.07D-05

 Cycle   9  Pass 1  IDiag  1:
 E= -155.963270083224     Delta-E=       -0.000000000279 Rises=F Damp=F
 DIIS: error= 1.75D-07 at cycle   5 NSaved=   5.
 NSaved= 5 IEnMin= 5 EnMin= -155.963270083224     IErMin= 5 ErrMin= 1.75D-07
 ErrMax= 1.75D-07  0.00D+00 EMaxC= 1.00D-01 BMatC= 3.05D-12 BMatP= 2.27D-10
 IDIUse=1 WtCom= 1.00D+00 WtEn= 0.00D+00
 Coeff-Com: -0.291D-01-0.216D-01 0.834D-01 0.190D+00 0.777D+00
 Coeff:     -0.291D-01-0.216D-01 0.834D-01 0.190D+00 0.777D+00
 Gap=     0.214 Goal=   None    Shift=    0.000
 RMSDP=4.20D-08 MaxDP=3.86D-07 DE=-2.79D-10 OVMax= 1.78D-06

 Cycle  10  Pass 1  IDiag  1:
 E= -155.963270083228     Delta-E=       -0.000000000004 Rises=F Damp=F
 DIIS: error= 1.47D-07 at cycle   6 NSaved=   6.
 NSaved= 6 IEnMin= 6 EnMin= -155.963270083228     IErMin= 6 ErrMin= 1.47D-07
 ErrMax= 1.47D-07  0.00D+00 EMaxC= 1.00D-01 BMatC= 8.65D-13 BMatP= 3.05D-12
 IDIUse=1 WtCom= 1.00D+00 WtEn= 0.00D+00
 Coeff-Com: -0.152D-01-0.118D-01 0.351D-01 0.834D-01 0.453D+00 0.455D+00
 Coeff:     -0.152D-01-0.118D-01 0.351D-01 0.834D-01 0.453D+00 0.455D+00
 Gap=     0.214 Goal=   None    Shift=    0.000
 RMSDP=1.16D-08 MaxDP=1.39D-07 DE=-4.49D-12 OVMax= 8.35D-07

 Cycle  11  Pass 1  IDiag  1:
 E= -155.963270083229     Delta-E=       -0.000000000001 Rises=F Damp=F
 DIIS: error= 6.15D-08 at cycle   7 NSaved=   7.
 NSaved= 7 IEnMin= 7 EnMin= -155.963270083229     IErMin= 7 ErrMin= 6.15D-08
 ErrMax= 6.15D-08  0.00D+00 EMaxC= 1.00D-01 BMatC= 1.58D-13 BMatP= 8.65D-13
 IDIUse=1 WtCom= 1.00D+00 WtEn= 0.00D+00
 Coeff-Com:  0.763D-03 0.193D-03-0.729D-02-0.163D-01 0.111D-01 0.307D+00
 Coeff-Com:  0.704D+00
 Coeff:      0.763D-03 0.193D-03-0.729D-02-0.163D-01 0.111D-01 0.307D+00
 Coeff:      0.704D+00
 Gap=     0.214 Goal=   None    Shift=    0.000
 RMSDP=4.42D-09 MaxDP=5.98D-08 DE=-1.25D-12 OVMax= 2.69D-07

 SCF Done:  E(RB3LYP) =  -155.963270083     A.U. after   11 cycles
            NFock= 11  Conv=0.44D-08     -V/T= 2.0044
 KE= 1.552745937253D+02 PE=-5.805554669288D+02 EE= 1.597025142393D+02
 Leave Link  502 at Thu Apr  6 10:17:25 2023, MaxMem=  1073741824 cpu:              10.8 elap:               1.4
 (Enter /home/gaussian/g16/l801.exe)
 DoSCS=F DFT=T ScalE2(SS,OS)=  1.000000  1.000000
 Range of M.O.s used for correlation:     1    90
 NBasis=    90 NAE=    15 NBE=    15 NFC=     0 NFV=     0
 NROrb=     90 NOA=    15 NOB=    15 NVA=    75 NVB=    75
 Leave Link  801 at Thu Apr  6 10:17:25 2023, MaxMem=  1073741824 cpu:               0.0 elap:               0.0
 (Enter /home/gaussian/g16/l1101.exe)
 Leave Link 1101 at Thu Apr  6 10:17:25 2023, MaxMem=  1073741824 cpu:               0.0 elap:               0.0
 (Enter /home/gaussian/g16/l1102.exe)
 Symmetrizing basis deriv contribution to polar:
 IMax=3 JMax=2 DiffMx= 0.00D+00
 Leave Link 1102 at Thu Apr  6 10:17:25 2023, MaxMem=  1073741824 cpu:               0.1 elap:               0.0
 (Enter /home/gaussian/g16/l1110.exe)
 Leave Link 1110 at Thu Apr  6 10:17:25 2023, MaxMem=  1073741824 cpu:               0.0 elap:               0.0
 (Enter /home/gaussian/g16/l1002.exe)
 Minotr:  Closed shell wavefunction.
 Leave Link 1002 at Thu Apr  6 10:17:25 2023, MaxMem=  1073741824 cpu:               0.0 elap:               0.1
 (Enter /home/gaussian/g16/l701.exe)
 ... and contract with generalized density number  0.
 Compute integral first derivatives.
 R6Disp: Adding Grimme-D3(BJ) dispersion energy 1st derivatives to the gradient.
 Leave Link  701 at Thu Apr  6 10:17:26 2023, MaxMem=  1073741824 cpu:               0.3 elap:               0.1
 (Enter /home/gaussian/g16/l702.exe)
 L702 exits ... SP integral derivatives will be done elsewhere.
 Leave Link  702 at Thu Apr  6 10:17:26 2023, MaxMem=  1073741824 cpu:               0.0 elap:               0.0
 (Enter /home/gaussian/g16/l703.exe)
 Integral derivatives from FoFJK, PRISM(SPDF).
 Compute integral first derivatives, UseDBF=F ICtDFT=           0.
 Calling FoFJK, ICntrl=      2127 FMM=F ISym2X=0 I1Cent= 0 IOpClX= 0 NMat=1 NMatS=1 NMatT=0.
 FoFJK:  IHMeth= 1 ICntrl=    2127 DoSepK=F KAlg= 0 I1Cent=           0 FoldK=F
 IRaf=         0 NMat=       1 IRICut=       1 DoRegI=T DoRafI=F ISym2E= 0 IDoP0=0 IntGTp=1.
 FoFCou: FMM=F IPFlag=           0 FMFlag=      100000 FMFlg1=         800
         NFxFlg=           0 DoJE=F BraDBF=F KetDBF=F FulRan=T
         wScrn=  0.000000 ICntrl=      2127 IOpCl=  0 I1Cent=           0 NGrid=           0
         NMat0=    1 NMatS0=      1 NMatT0=    0 NMatD0=    1 NMtDS0=    0 NMtDT0=    0
 Symmetry not used in FoFCou.
 Leave Link  703 at Thu Apr  6 10:17:26 2023, MaxMem=  1073741824 cpu:               5.4 elap:               0.7
 (Enter /home/gaussian/g16/l716.exe)
 Dipole        = 6.77266062D-07-7.91265490D-02 3.38683674D-06
 Polarizability= 0.00000000D+00 0.00000000D+00 0.00000000D+00
                 0.00000000D+00 0.00000000D+00 0.00000000D+00
 -------------------------------------------------------------------
 Center     Atomic                   Forces (Hartrees/Bohr)
 Number     Number              X              Y              Z
 -------------------------------------------------------------------
      1        6          -0.004622445    0.001926274    0.000403707
      2        1           0.000554741   -0.000319581   -0.000597176
      3        1          -0.000719695    0.000411566    0.000410287
      4        6          -0.000911967   -0.001827091   -0.000684465
      5        1           0.000120838   -0.000191509   -0.000465322
      6        6           0.000912016   -0.001826668    0.000684772
      7        1          -0.000120610   -0.000191262    0.000465127
      8        6           0.004622124    0.001926295   -0.000403653
      9        1          -0.000554809   -0.000319534    0.000597097
     10        1           0.000719806    0.000411510   -0.000410374
 -------------------------------------------------------------------
 Cartesian Forces:  Max     0.004622445 RMS     0.001455263
 Z-matrix is all fixed cartesians, so copy forces.
 Leave Link  716 at Thu Apr  6 10:17:26 2023, MaxMem=  1073741824 cpu:               0.1 elap:               0.0
 (Enter /home/gaussian/g16/l123.exe)
[...]
 (Enter /home/gaussian/g16/l702.exe)
 L702 exits ... SP integral derivatives will be done elsewhere.
 Leave Link  702 at Thu Apr  6 10:24:41 2023, MaxMem=  1073741824 cpu:               0.0 elap:               0.0
 (Enter /home/gaussian/g16/l703.exe)
 Integral derivatives from FoFJK, PRISM(SPDF).
 Compute integral first derivatives, UseDBF=F ICtDFT=           0.
 Calling FoFJK, ICntrl=      2127 FMM=F ISym2X=0 I1Cent= 0 IOpClX= 0 NMat=1 NMatS=1 NMatT=0.
 FoFJK:  IHMeth= 1 ICntrl=    2127 DoSepK=F KAlg= 0 I1Cent=           0 FoldK=F
 IRaf=         0 NMat=       1 IRICut=       1 DoRegI=T DoRafI=F ISym2E= 0 IDoP0=0 IntGTp=1.
 FoFCou: FMM=F IPFlag=           0 FMFlag=      100000 FMFlg1=         800
         NFxFlg=           0 DoJE=F BraDBF=F KetDBF=F FulRan=T
         wScrn=  0.000000 ICntrl=      2127 IOpCl=  0 I1Cent=           0 NGrid=           0
         NMat0=    1 NMatS0=      1 NMatT0=    0 NMatD0=    1 NMtDS0=    0 NMtDT0=    0
 Symmetry not used in FoFCou.
 Leave Link  703 at Thu Apr  6 10:24:41 2023, MaxMem=  1073741824 cpu:               5.2 elap:               0.7
 (Enter /home/gaussian/g16/l716.exe)
 Dipole        =-2.91268935D-07 5.27788247D-02-9.67221050D-08
 Polarizability= 0.00000000D+00 0.00000000D+00 0.00000000D+00
                 0.00000000D+00 0.00000000D+00 0.00000000D+00
 -------------------------------------------------------------------
 Center     Atomic                   Forces (Hartrees/Bohr)
 Number     Number              X              Y              Z
 -------------------------------------------------------------------
      1        6          -0.000023779   -0.000044244   -0.000018628
      2        1          -0.000034599    0.000061877   -0.000047113
      3        1           0.000033678   -0.000005103    0.000014955
      4        6          -0.000019271    0.000034110    0.000047464
      5        1           0.000021559   -0.000046640    0.000033075
      6        6           0.000019270    0.000034110   -0.000047464
      7        1          -0.000021559   -0.000046640   -0.000033075
      8        6           0.000023779   -0.000044244    0.000018628
      9        1           0.000034598    0.000061878    0.000047113
     10        1          -0.000033678   -0.000005104   -0.000014955
 -------------------------------------------------------------------
 Cartesian Forces:  Max     0.000061878 RMS     0.000035610
 Z-matrix is all fixed cartesians, so copy forces.
 Leave Link  716 at Thu Apr  6 10:24:41 2023, MaxMem=  1073741824 cpu:               0.0 elap:               0.0
 (Enter /home/gaussian/g16/l123.exe)
 IRC-IRC-IRC-IRC-IRC-IRC-IRC-IRC-IRC-IRC-IRC-IRC-IRC-IRC-IRC-IRC-IRC-IRC
 Pt 87 Step number   1 out of a maximum of  20
 Using modified Bulirsch-Stoer corrector integration.
   Using distance weighted interpolants to fit PES.
 PreDWI: IReCr0= 2 IReCr1= 1 IReCr2= 1 IReCr3= 1
 Modified Bulirsch-Stoer Extrapolation Cycles:
    EPS =    0.000010000000000
    Cycle     1 NS=    48
      PEZero:  N= 2 I= 1 D=  3.78D-04 Err=  7.04D-03
    Cycle     2 NS=    64 Truncation Error =  0.007037213
      PEZero:  N= 3 I= 2 D=  3.78D-04 Err=  9.24D-03
      PEZero:  N= 3 I= 1 D=  7.56D-04 Err=  6.83D-03
    Cycle     3 NS=    96 Truncation Error =  0.006827586
      PEZero:  N= 4 I= 3 D=  1.89D-04 Err=  5.73D-03
      PEZero:  N= 4 I= 2 D=  5.67D-04 Err=  2.84D-03
      PEZero:  N= 4 I= 1 D=  9.44D-04 Err=  6.03D-03
    Cycle     4 NS=   128 Truncation Error =  0.002838106
      PEZero:  N= 5 I= 4 D=  1.89D-04 Err=  2.98D-03
      PEZero:  N= 5 I= 3 D=  3.78D-04 Err=  1.50D-03
      PEZero:  N= 5 I= 2 D=  7.56D-04 Err=  1.00D-03
      PEZero:  N= 5 I= 1 D=  1.13D-03 Err=  1.35D-03
    Cycle     5 NS=   192 Truncation Error =  0.001000909
      PEZero:  N= 6 I= 5 D=  9.44D-05 Err=  1.61D-05
      PEZero:  N= 6 I= 4 D=  2.83D-04 Err=  2.97D-03
    Cycle     6 NS=   256 Truncation Error =  0.000016106
      PEZero:  N= 7 I= 6 D=  9.44D-05 Err=  1.06D-05
      PEZero:  N= 7 I= 5 D=  1.89D-04 Err=  2.64D-07
      PEZero:  N= 7 I= 4 D=  3.78D-04 Err=  7.52D-04
    Cycle     7 NS=   384 Truncation Error =  0.000000264
 BS completed in    7 cycles and    1168 integration steps.
 Maximum DWI energy   std dev =  0.000000039 at pt    63
 Maximum DWI gradient std dev =  0.393357342 at pt    62
 SUMMARY OF CORRECTOR INTEGRATION:
   Predictor End Point Energy =  -156.033541
   Old End Point Energy       =  -156.033541
   Corrected End Point Energy =  -156.033541
   Predictor End-Start Dist.  =     0.072529
   Old End-Start Dist.        =     0.072529
   New End-Start Dist.        =     0.071463
   New End-Old End Dist.      =     0.001197
 CORRECTOR INTEGRATION CONVERGENCE:
   Recorrection delta-x convergence threshold:    0.010000
   Delta-x Convergence Met
 Point Number:  87          Path Number:   1
                    CURRENT STRUCTURE
                Cartesian Coordinates (Ang):                
 ---------------------------------------------------------------------
 Center     Atomic                     Coordinates (Angstroms)
 Number     Number                        X           Y           Z
 ---------------------------------------------------------------------
      1          6                   -1.535078   -0.502599    0.140721
      2          1                   -1.155072   -1.448372    0.514215
      3          1                   -2.604625   -0.436516   -0.025327
      4          6                   -0.728879    0.536576   -0.085544
      5          1                   -1.169783    1.480326   -0.403165
      6          6                    0.728873    0.536584    0.085542
      7          1                    1.169767    1.480340    0.403159
      8          6                    1.535084   -0.502582   -0.140720
      9          1                    1.155089   -1.448360   -0.514210
     10          1                    2.604630   -0.436487    0.025328
 ---------------------------------------------------------------------
   CHANGE IN THE REACTION COORDINATE =    0.07146
   NET REACTION COORDINATE UP TO THIS POINT =    6.40204
  # OF POINTS ALONG THE PATH =  87
  # OF STEPS =   1

 PES minimum detected on this side of the pathway.
    Magnitude of the gradient =      0.0000502
 Calculation of FORWARD path complete.
 Reaction path calculation complete.
 
 Energies reported relative to the TS energy of        -155.963053
 --------------------------------------------------------------------------
    Summary of reaction path following
 --------------------------------------------------------------------------
                        Energy    RxCoord
   1                    0.00000   0.00000
   2                   -0.00005   0.07363
   3                   -0.00022   0.14723
   4                   -0.00049   0.22084
   5                   -0.00086   0.29444
   6                   -0.00135   0.36805
   7                   -0.00193   0.44167
   8                   -0.00261   0.51528
   9                   -0.00338   0.58889
  10                   -0.00425   0.66250
  11                   -0.00520   0.73611
  12                   -0.00623   0.80973
  13                   -0.00733   0.88334
  14                   -0.00850   0.95695
  15                   -0.00973   1.03056
  16                   -0.01102   1.10418
  17                   -0.01236   1.17779
  18                   -0.01374   1.25140
  19                   -0.01516   1.32502
  20                   -0.01661   1.39863
  21                   -0.01809   1.47224
  22                   -0.01958   1.54585
  23                   -0.02110   1.61947
  24                   -0.02262   1.69308
  25                   -0.02414   1.76669
  26                   -0.02567   1.84031
  27                   -0.02719   1.91392
  28                   -0.02871   1.98753
  29                   -0.03021   2.06114
  30                   -0.03170   2.13476
  31                   -0.03317   2.20837
  32                   -0.03462   2.28198
  33                   -0.03606   2.35559
  34                   -0.03746   2.42921
  35                   -0.03884   2.50282
  36                   -0.04020   2.57643
  37                   -0.04153   2.65005
  38                   -0.04282   2.72366
  39                   -0.04409   2.79727
  40                   -0.04532   2.87088
  41                   -0.04652   2.94450
  42                   -0.04769   3.01811
  43                   -0.04883   3.09172
  44                   -0.04993   3.16534
  45                   -0.05100   3.23895
  46                   -0.05204   3.31256
  47                   -0.05305   3.38618
  48                   -0.05402   3.45979
  49                   -0.05495   3.53340
  50                   -0.05586   3.60702
  51                   -0.05673   3.68063
  52                   -0.05757   3.75424
  53                   -0.05838   3.82786
  54                   -0.05916   3.90147
  55                   -0.05990   3.97509
  56                   -0.06062   4.04870
  57                   -0.06130   4.12231
  58                   -0.06196   4.19593
  59                   -0.06258   4.26954
  60                   -0.06318   4.34316
  61                   -0.06375   4.41677
  62                   -0.06429   4.49039
  63                   -0.06481   4.56400
  64                   -0.06530   4.63762
  65                   -0.06576   4.71123
  66                   -0.06620   4.78484
  67                   -0.06661   4.85846
  68                   -0.06700   4.93207
  69                   -0.06737   5.00569
  70                   -0.06771   5.07930
  71                   -0.06803   5.15292
  72                   -0.06833   5.22653
  73                   -0.06861   5.30015
  74                   -0.06886   5.37377
  75                   -0.06910   5.44738
  76                   -0.06931   5.52100
  77                   -0.06951   5.59461
  78                   -0.06969   5.66823
  79                   -0.06984   5.74184
  80                   -0.06998   5.81546
  81                   -0.07011   5.88908
  82                   -0.07021   5.96269
  83                   -0.07030   6.03631
  84                   -0.07037   6.10992
  85                   -0.07042   6.18353
  86                   -0.07046   6.25712
  87                   -0.07048   6.33058
  88                   -0.07049   6.40204
 --------------------------------------------------------------------------
 
 Total number of points:                   87
 Total number of gradient calculations:    88
 Total number of Hessian calculations:     22
 IRC-IRC-IRC-IRC-IRC-IRC-IRC-IRC-IRC-IRC-IRC-IRC-IRC-IRC-IRC-IRC-IRC-IRC
 Leave Link  123 at Thu Apr  6 10:24:41 2023, MaxMem=  1073741824 cpu:               0.2 elap:               0.0
 (Enter /home/gaussian/g16/l202.exe)
                          Input orientation:                          
 ---------------------------------------------------------------------
 Center     Atomic      Atomic             Coordinates (Angstroms)
 Number     Number       Type             X           Y           Z
 ---------------------------------------------------------------------
      1          6           0       -1.535137   -0.502606    0.140703
      2          1           0       -1.155135   -1.448545    0.514125
      3          1           0       -2.604731   -0.436373   -0.025343
      4          6           0       -0.728897    0.536573   -0.085496
      5          1           0       -1.169840    1.480448   -0.402994
      6          6           0        0.728891    0.536581    0.085494
      7          1           0        1.169823    1.480462    0.402988
      8          6           0        1.535143   -0.502590   -0.140701
      9          1           0        1.155152   -1.448534   -0.514120
     10          1           0        2.604736   -0.436344    0.025344
 ---------------------------------------------------------------------
                    Distance matrix (angstroms):
                    1          2          3          4          5
     1  C    0.000000
     2  H    1.085655   0.000000
     3  H    1.084431   1.848471   0.000000
     4  C    1.334571   2.117054   2.113999   0.000000
     5  H    2.088432   3.069254   2.423991   1.089098   0.000000
     6  C    2.491743   2.770200   3.474473   1.467783   2.175933
     7  H    3.364248   3.741239   4.254995   2.175933   2.474597
     8  C    3.083148   2.925957   4.142010   2.491743   3.364248
     9  H    2.925957   2.528777   3.924295   2.770200   3.741239
    10  H    4.142010   3.924295   5.209714   3.474473   4.254995
                    6          7          8          9         10
     6  C    0.000000
     7  H    1.089098   0.000000
     8  C    1.334571   2.088432   0.000000
     9  H    2.117054   3.069254   1.085655   0.000000
    10  H    2.113999   2.423991   1.084431   1.848471   0.000000
 Symmetry turned off by external request.
 Stoichiometry    C4H6
 Framework group  C2[X(C4H6)]
 Deg. of freedom    13
 Full point group                 C2      NOp   2
 Rotational constants (GHZ):          21.6441892           5.6186912           4.5692867
 Leave Link  202 at Thu Apr  6 10:24:41 2023, MaxMem=  1073741824 cpu:               0.0 elap:               0.0
 (Enter /home/gaussian/g16/l601.exe)
 Copying SCF densities to generalized density rwf, IOpCl= 0 IROHF=0.

 **********************************************************************

            Population analysis using the SCF Density.

 **********************************************************************

 Alpha  occ. eigenvalues --  -10.17816 -10.17785 -10.16746 -10.16745  -0.80897
 Alpha  occ. eigenvalues --   -0.73302  -0.62224  -0.53454  -0.49511  -0.44251
 Alpha  occ. eigenvalues --   -0.43079  -0.37541  -0.35293  -0.31370  -0.24190
 Alpha virt. eigenvalues --   -0.03226   0.04907   0.06718   0.07073   0.08329
 Alpha virt. eigenvalues --    0.11612   0.13007   0.14492   0.26020   0.27426
 Alpha virt. eigenvalues --    0.32243   0.32554   0.34238   0.38999   0.39775
 Alpha virt. eigenvalues --    0.41022   0.43040   0.44867   0.46212   0.51012
 Alpha virt. eigenvalues --    0.53534   0.56442   0.57974   0.63687   0.64011
 Alpha virt. eigenvalues --    0.66702   0.69972   0.71326   0.73562   0.78409
 Alpha virt. eigenvalues --    0.81197   0.84852   0.88738   1.16419   1.20761
 Alpha virt. eigenvalues --    1.20990   1.29148   1.36733   1.38349   1.41667
 Alpha virt. eigenvalues --    1.47484   1.52748   1.57292   1.66595   1.77213
 Alpha virt. eigenvalues --    1.78584   1.86791   1.92938   1.95372   2.05787
 Alpha virt. eigenvalues --    2.16521   2.20330   2.22430   2.26584   2.32833
 Alpha virt. eigenvalues --    2.33908   2.45080   2.57093   2.57909   2.69285
 Alpha virt. eigenvalues --    2.79859   2.90257   3.03558   3.07316   3.21013
 Alpha virt. eigenvalues --    3.23304   3.26998   3.28191   3.48341   3.61600
 Alpha virt. eigenvalues --    4.15155  23.23019  23.55241  24.18129  24.21321
          Condensed to atoms (all electrons):
               1          2          3          4          5          6
     1  C    5.108495   0.386844   0.387331   0.635997  -0.043711  -0.056636
     2  H    0.386844   0.484369  -0.038039  -0.040769   0.007553  -0.010042
     3  H    0.387331  -0.038039   0.483518  -0.033749  -0.010083   0.006565
     4  C    0.635997  -0.040769  -0.033749   4.926680   0.394088   0.412759
     5  H   -0.043711   0.007553  -0.010083   0.394088   0.510305  -0.051044
     6  C   -0.056636  -0.010042   0.006565   0.412759  -0.051044   4.926680
     7  H    0.005319   0.000139  -0.000366  -0.051044  -0.003935   0.394088
     8  C   -0.011805   0.005026  -0.000064  -0.056636   0.005319   0.635997
     9  H    0.005026   0.001280  -0.000205  -0.010042   0.000139  -0.040769
    10  H   -0.000064  -0.000205   0.000028   0.006565  -0.000366  -0.033749
               7          8          9         10
     1  C    0.005319  -0.011805   0.005026  -0.000064
     2  H    0.000139   0.005026   0.001280  -0.000205
     3  H   -0.000366  -0.000064  -0.000205   0.000028
     4  C   -0.051044  -0.056636  -0.010042   0.006565
     5  H   -0.003935   0.005319   0.000139  -0.000366
     6  C    0.394088   0.635997  -0.040769  -0.033749
     7  H    0.510305  -0.043711   0.007553  -0.010083
     8  C   -0.043711   5.108495   0.386844   0.387331
     9  H    0.007553   0.386844   0.484369  -0.038039
    10  H   -0.010083   0.387331  -0.038039   0.483518
 Mulliken charges:
               1
     1  C   -0.416796
     2  H    0.203844
     3  H    0.205065
     4  C   -0.183849
     5  H    0.191736
     6  C   -0.183849
     7  H    0.191736
     8  C   -0.416796
     9  H    0.203844
    10  H    0.205065
 Sum of Mulliken charges =  -0.00000
 Mulliken charges with hydrogens summed into heavy atoms:
               1
     1  C   -0.007887
     4  C    0.007887
     6  C    0.007887
     8  C   -0.007887
 APT charges:
               1
     1  C   -0.809219
     2  H    0.357836
     3  H    0.599332
     4  C   -0.626756
     5  H    0.478807
     6  C   -0.626756
     7  H    0.478807
     8  C   -0.809219
     9  H    0.357836
    10  H    0.599332
 Sum of APT charges =  -0.00000
 APT charges with hydrogens summed into heavy atoms:
               1
     1  C    0.147948
     4  C   -0.147948
     6  C   -0.147948
     8  C    0.147948
 Electronic spatial extent (au):  <R**2>=            306.5028
 Charge=             -0.0000 electrons
 Dipole moment (field-independent basis, Debye):
    X=             -0.0000    Y=              0.1342    Z=             -0.0000  Tot=              0.1342
 Quadrupole moment (field-independent basis, Debye-Ang):
   XX=            -23.2790   YY=            -23.2212   ZZ=            -28.2960
   XY=              0.0000   XZ=              0.6340   YZ=             -0.0000
 Traceless Quadrupole moment (field-independent basis, Debye-Ang):
   XX=              1.6530   YY=              1.7109   ZZ=             -3.3640
   XY=              0.0000   XZ=              0.6340   YZ=             -0.0000
 Octapole moment (field-independent basis, Debye-Ang**2):
  XXX=             -0.0000  YYY=              1.8489  ZZZ=             -0.0000  XYY=             -0.0000
  XXY=              0.0473  XXZ=             -0.0000  XZZ=             -0.0000  YZZ=              0.4140
  YYZ=              0.0000  XYZ=              2.0564
 Hexadecapole moment (field-independent basis, Debye-Ang**3):
 XXXX=           -266.1742 YYYY=            -94.5057 ZZZZ=            -38.4878 XXXY=             -0.0004
 XXXZ=              9.8469 YYYX=             -0.0005 YYYZ=              0.0001 ZZZX=              6.0491
 ZZZY=              0.0001 XXYY=            -64.5754 XXZZ=            -61.2754 YYZZ=            -22.9973
 XXYZ=              0.0000 YYXZ=              1.8845 ZZXY=             -0.0002
 N-N= 1.048752482553D+02 E-N=-5.711475470403D+02  KE= 1.553380080854D+02
  Exact polarizability:       0.000       0.000       0.000       0.000       0.000       0.000
 Approx polarizability:      88.160       0.000      73.421      -3.724      -0.000      33.530
 No NMR shielding tensors so no spin-rotation constants.
 Leave Link  601 at Thu Apr  6 10:24:42 2023, MaxMem=  1073741824 cpu:               0.3 elap:               0.1
 (Enter /home/gaussian/g16/l9999.exe)

 This type of calculation cannot be archived.


 BUT 'GLORY' DOESN'T MEAN 'A NICE KNOCK DOWN ARGUMENT', ALICE OBJECTED.
 WHEN I USE A WORD, HUMPTY DUMPTY SAID, IN A RATHER SCORNFUL TONE,
 IT MEANS JUST WHAT I CHOOSE IT TO MEAN....
 NEITHER MORE NOR LESS....
 THE QUESTION IS, SAID ALICE,
 WHETHER YOU CAN MAKE WORDS MEAN SO MANY DIFFERENT THINGS...
 THE QUESTION IS, SAID HUMPTY DUMPTY,
 WHICH IS TO BE MASTER....
 THAT IS ALL.....

 ALICE THROUGH THE LOOKING GLASS
 Job cpu time:       0 days  0 hours 54 minutes 24.4 seconds.
 Elapsed time:       0 days  0 hours  7 minutes 28.6 seconds.
 File lengths (MBytes):  RWF=     14 Int=      0 D2E=      0 Chk=      3 Scr=      1
 Normal termination of Gaussian 16 at Thu Apr  6 10:24:42 2023.
